
     Program PWSCF v.6.1 (svn rev. 13369) starts on 12Sep2018 at 21:59:20 

     This program is part of the open-source Quantum ESPRESSO suite
     for quantum simulation of materials; please cite
         "P. Giannozzi et al., J. Phys.:Condens. Matter 21 395502 (2009);
          URL http://www.quantum-espresso.org", 
     in publications or presentations arising from this work. More details at
     http://www.quantum-espresso.org/quote

     Parallel version (MPI), running on    24 processors
     R & G space division:  proc/nbgrp/npool/nimage =      24
     Waiting for input...
     Reading input from standard input

     Current dimensions of program PWSCF are:
     Max number of different atomic species (ntypx) = 10
     Max number of k-points (npk) =  40000
     Max angular momentum in pseudopotentials (lmaxx) =  3

     IMPORTANT: XC functional enforced from input :
     Exchange-correlation      = PBE ( 1  4  3  4 0 0)
     Any further DFT definition will be discarded
     Please, verify this is what you really want

               file Pb.pbe-dn-rrkjus_psl.0.2.2.UPF: wavefunction(s)  6S renormalized

     Subspace diagonalization in iterative solution of the eigenvalue problem:
     a serial algorithm will be used


     Parallelization info
     --------------------
     sticks:   dense  smooth     PW     G-vecs:    dense   smooth      PW
     Min         467     133     36                53199     8117    1168
     Max         468     134     37                53208     8122    1175
     Sum       11213    3197    877              1276823   194839   28115


     Title: 
     00_15_1101_75                                                              


     bravais-lattice index     =            0
     lattice parameter (alat)  =      16.7226  a.u.
     unit-cell volume          =    6680.8270 (a.u.)^3
     number of atoms/cell      =           48
     number of atomic types    =            5
     number of electrons       =       200.00
     number of Kohn-Sham states=          120
     kinetic-energy cutoff     =      36.0000  Ry
     charge density cutoff     =     504.0000  Ry
     convergence threshold     =      1.0E-08
     mixing beta               =       0.1000
     number of iterations used =            8  local-TF  mixing
     Exchange-correlation      = PBE ( 1  4  3  4 0 0)
     nstep                     =          999


     celldm(1)=  16.722606  celldm(2)=   0.000000  celldm(3)=   0.000000
     celldm(4)=   0.000000  celldm(5)=   0.000000  celldm(6)=   0.000000

     crystal axes: (cart. coord. in units of alat)
               a(1) = (   1.000000   0.000000   0.000000 )  
               a(2) = (   0.000000   1.000000   0.000000 )  
               a(3) = (   0.000000   0.000000   1.428625 )  

     reciprocal axes: (cart. coord. in units 2 pi/alat)
               b(1) = (  1.000000  0.000000  0.000000 )  
               b(2) = (  0.000000  1.000000  0.000000 )  
               b(3) = (  0.000000  0.000000  0.699974 )  


     PseudoPot. # 1 for  H read from file:
     /users/kdm/milmarty/TETRA_NEW_NEW_NEW/pseudo/H.pbe-rrkjus_psl.0.1.UPF
     MD5 check sum: bd57da0722753ddfd9833a65b40bb853
     Pseudo is Ultrasoft, Zval =  1.0
     Generated using "atomic" code by A. Dal Corso  v.5.0.2 svn rev. 9415
     Using radial grid of  929 points,  2 beta functions with: 
                l(1) =   0
                l(2) =   0
     Q(r) pseudized with 0 coefficients 


     PseudoPot. # 2 for  C read from file:
     /users/kdm/milmarty/TETRA_NEW_NEW_NEW/pseudo/C.pbe-n-rrkjus_psl.0.1.UPF
     MD5 check sum: ab446d787031eba755f1d5ee46644bb0
     Pseudo is Ultrasoft + core correction, Zval =  4.0
     Generated using "atomic" code by A. Dal Corso  v.5.0.2 svn rev. 9415
     Using radial grid of 1073 points,  4 beta functions with: 
                l(1) =   0
                l(2) =   0
                l(3) =   1
                l(4) =   1
     Q(r) pseudized with 0 coefficients 


     PseudoPot. # 3 for  N read from file:
     /users/kdm/milmarty/TETRA_NEW_NEW_NEW/pseudo/N.pbe-n-rrkjus_psl.0.1.UPF
     MD5 check sum: ed8b6a90f28a53b7d71920e7015d2dd6
     Pseudo is Ultrasoft + core correction, Zval =  5.0
     Generated using "atomic" code by A. Dal Corso  v.5.0.2 svn rev. 9415
     Using radial grid of 1085 points,  4 beta functions with: 
                l(1) =   0
                l(2) =   0
                l(3) =   1
                l(4) =   1
     Q(r) pseudized with 0 coefficients 


     PseudoPot. # 4 for  I read from file:
     /users/kdm/milmarty/TETRA_NEW_NEW_NEW/pseudo/I.pbe-n-rrkjus_psl.0.2.UPF
     MD5 check sum: f9a5bb98cc7d7d8a1a5c1f9867e5ab3f
     Pseudo is Ultrasoft + core correction, Zval =  7.0
     Generated using "atomic" code by A. Dal Corso  v.5.0.2 svn rev. 9415
     Using radial grid of 1247 points,  4 beta functions with: 
                l(1) =   0
                l(2) =   0
                l(3) =   1
                l(4) =   1
     Q(r) pseudized with 0 coefficients 


     PseudoPot. # 5 for Pb read from file:
     /users/kdm/milmarty/TETRA_NEW_NEW_NEW/pseudo/Pb.pbe-dn-rrkjus_psl.0.2.2.UPF
     MD5 check sum: 7afc420059c37d6888fc09c0f121e83f
     Pseudo is Ultrasoft + core correction, Zval = 14.0
     Generated using "atomic" code by A. Dal Corso  v.5.0.2 svn rev. 9415
     Using radial grid of 1281 points,  6 beta functions with: 
                l(1) =   0
                l(2) =   0
                l(3) =   1
                l(4) =   1
                l(5) =   2
                l(6) =   2
     Q(r) pseudized with 0 coefficients 


     atomic species   valence    mass     pseudopotential
        H              1.00     1.00794      H( 1.00)
        C              4.00    12.01070      C( 1.00)
        N              5.00    14.00674      N( 1.00)
        I              7.00   126.90447      I( 1.00)
        Pb            14.00   207.20000     Pb( 1.00)

     No symmetry found



   Cartesian axes

     site n.     atom                  positions (alat units)
         1           Pb  tau(   1) = (   0.0000000   0.0000000   0.0000000  )
         2           Pb  tau(   2) = (   0.5000000   0.5000000   0.0000000  )
         3           Pb  tau(   3) = (   0.0000000   0.0000000   0.7143126  )
         4           Pb  tau(   4) = (   0.5000000   0.5000000   0.7143126  )
         5           I   tau(   5) = (   0.2500001   0.2500001   0.0000000  )
         6           I   tau(   6) = (   0.7500000   0.2500001   0.0000000  )
         7           I   tau(   7) = (   0.7500000   0.7500000   0.0000000  )
         8           I   tau(   8) = (   0.2500001   0.7500000   0.0000000  )
         9           I   tau(   9) = (   0.0000000   0.0000000   0.3571564  )
        10           I   tau(  10) = (   0.5000000   0.5000000   0.3571564  )
        11           I   tau(  11) = (   0.2500001   0.2500001   0.7143126  )
        12           I   tau(  12) = (   0.7500000   0.2500001   0.7143126  )
        13           I   tau(  13) = (   0.7500000   0.7500000   0.7143126  )
        14           I   tau(  14) = (   0.2500001   0.7500000   0.7143126  )
        15           I   tau(  15) = (   0.0000000   0.0000000   1.0714690  )
        16           I   tau(  16) = (   0.5000000   0.5000000   1.0714690  )
        17           C   tau(  17) = (   0.5000000   1.0000001   1.1590476  )
        18           H   tau(  18) = (   0.4406370   1.1010376   1.1968216  )
        19           H   tau(  19) = (   0.4421806   0.8980715   1.1968216  )
        20           H   tau(  20) = (   0.6171825   1.0008912   1.1968216  )
        21           H   tau(  21) = (   0.3905040   0.9991729   0.9425467  )
        22           H   tau(  22) = (   0.5554645   0.9055874   0.9425467  )
        23           H   tau(  23) = (   0.5540316   1.0952401   0.9425467  )
        24           N   tau(  24) = (   0.5000000   1.0000001   0.9838884  )
        25           C   tau(  25) = (   1.0000000   0.5000001   1.1590476  )
        26           H   tau(  26) = (   0.9406370   0.6010376   1.1968216  )
        27           H   tau(  27) = (   0.9421805   0.3980715   1.1968216  )
        28           H   tau(  28) = (   1.1171825   0.5008913   1.1968216  )
        29           H   tau(  29) = (   0.8905040   0.4991729   0.9425467  )
        30           H   tau(  30) = (   1.0554645   0.4055874   0.9425467  )
        31           H   tau(  31) = (   1.0540316   0.5952401   0.9425467  )
        32           N   tau(  32) = (   1.0000000   0.5000001   0.9838884  )
        33           C   tau(  33) = (   0.5000001   0.9999997   0.4447347  )
        34           H   tau(  34) = (   0.5822305   1.0834904   0.4825090  )
        35           H   tau(  35) = (   0.3865798   1.0294680   0.4825090  )
        36           H   tau(  36) = (   0.5311900   0.8870408   0.4825090  )
        37           H   tau(  37) = (   0.4708615   1.1055506   0.2282341  )
        38           H   tau(  38) = (   0.4231597   0.9219893   0.2282341  )
        39           H   tau(  39) = (   0.6059793   0.9724590   0.2282341  )
        40           N   tau(  40) = (   0.5000001   0.9999997   0.2695758  )
        41           C   tau(  41) = (   0.9999999   0.4999998   0.4447347  )
        42           H   tau(  42) = (   0.9406369   0.6010372   0.4825090  )
        43           H   tau(  43) = (   0.9421804   0.3980711   0.4825090  )
        44           H   tau(  44) = (   1.1171825   0.5008909   0.4825090  )
        45           H   tau(  45) = (   0.8905039   0.4991726   0.2282341  )
        46           H   tau(  46) = (   1.0554645   0.4055871   0.2282341  )
        47           H   tau(  47) = (   1.0540315   0.5952398   0.2282341  )
        48           N   tau(  48) = (   0.9999999   0.4999998   0.2695758  )

     number of k points=   112

     Number of k-points >= 100: set verbosity='high' to print them.

     Dense  grid:  1276823 G-vectors     FFT dimensions: ( 120, 120, 180)

     Smooth grid:   194839 G-vectors     FFT dimensions: (  64,  64,  96)

     Estimated max dynamical RAM per process >     268.89MB

     Estimated total allocated dynamical RAM >    6453.29MB

     Initial potential from superposition of free atoms

     starting charge  199.98925, renormalised to  200.00000
     Starting wfc are  140 randomized atomic wfcs

     total cpu time spent up to now is       98.7 secs

     per-process dynamical memory:   280.7 Mb

     Self-consistent Calculation

     iteration #  1     ecut=    36.00 Ry     beta=0.10
     Davidson diagonalization with overlap
     ethr =  1.00E-02,  avg # of iterations =  3.9

     total cpu time spent up to now is      451.4 secs

     total energy              =   -1452.96840387 Ry
     Harris-Foulkes estimate   =   -1453.10898295 Ry
     estimated scf accuracy    <       2.74696656 Ry

     iteration #  2     ecut=    36.00 Ry     beta=0.10
     Davidson diagonalization with overlap
     ethr =  1.37E-03,  avg # of iterations =  1.2

     total cpu time spent up to now is      650.8 secs

     total energy              =   -1451.96929545 Ry
     Harris-Foulkes estimate   =   -1453.00842513 Ry
     estimated scf accuracy    <       2.33782818 Ry

     iteration #  3     ecut=    36.00 Ry     beta=0.10
     Davidson diagonalization with overlap
     ethr =  1.17E-03,  avg # of iterations =  5.3

     total cpu time spent up to now is      984.0 secs

     total energy              =   -1452.34622100 Ry
     Harris-Foulkes estimate   =   -1452.35207367 Ry
     estimated scf accuracy    <       0.15148006 Ry

     iteration #  4     ecut=    36.00 Ry     beta=0.10
     Davidson diagonalization with overlap
     ethr =  7.57E-05,  avg # of iterations =  9.8

     total cpu time spent up to now is     1408.6 secs

     total energy              =   -1452.32440475 Ry
     Harris-Foulkes estimate   =   -1452.35567717 Ry
     estimated scf accuracy    <       0.12935119 Ry

     iteration #  5     ecut=    36.00 Ry     beta=0.10
     Davidson diagonalization with overlap
     ethr =  6.47E-05,  avg # of iterations =  3.0

     total cpu time spent up to now is     1679.3 secs

     total energy              =   -1452.32860492 Ry
     Harris-Foulkes estimate   =   -1452.33920679 Ry
     estimated scf accuracy    <       0.04413104 Ry

     iteration #  6     ecut=    36.00 Ry     beta=0.10
     Davidson diagonalization with overlap
     c_bands:  1 eigenvalues not converged
     c_bands:  1 eigenvalues not converged
     c_bands:  1 eigenvalues not converged
     ethr =  2.21E-05,  avg # of iterations =  7.6

     total cpu time spent up to now is     1997.6 secs

     total energy              =   -1452.32772399 Ry
     Harris-Foulkes estimate   =   -1452.33090291 Ry
     estimated scf accuracy    <       0.02142139 Ry

     iteration #  7     ecut=    36.00 Ry     beta=0.10
     Davidson diagonalization with overlap
     c_bands:  1 eigenvalues not converged
     c_bands:  1 eigenvalues not converged
     ethr =  1.07E-05,  avg # of iterations =  3.6

     total cpu time spent up to now is     2237.0 secs

     total energy              =   -1452.32335592 Ry
     Harris-Foulkes estimate   =   -1452.32837633 Ry
     estimated scf accuracy    <       0.01164695 Ry

     iteration #  8     ecut=    36.00 Ry     beta=0.10
     Davidson diagonalization with overlap
     ethr =  5.82E-06,  avg # of iterations =  8.4

     total cpu time spent up to now is     2707.7 secs

     total energy              =   -1452.32513869 Ry
     Harris-Foulkes estimate   =   -1452.32509354 Ry
     estimated scf accuracy    <       0.00222670 Ry

     iteration #  9     ecut=    36.00 Ry     beta=0.10
     Davidson diagonalization with overlap
     ethr =  1.11E-06,  avg # of iterations =  1.3

     total cpu time spent up to now is     2908.4 secs

     total energy              =   -1452.32468842 Ry
     Harris-Foulkes estimate   =   -1452.32520551 Ry
     estimated scf accuracy    <       0.00237987 Ry

     iteration # 10     ecut=    36.00 Ry     beta=0.10
     Davidson diagonalization with overlap
     ethr =  1.11E-06,  avg # of iterations =  3.1

     total cpu time spent up to now is     3185.5 secs

     total energy              =   -1452.32476288 Ry
     Harris-Foulkes estimate   =   -1452.32510847 Ry
     estimated scf accuracy    <       0.00118294 Ry

     iteration # 11     ecut=    36.00 Ry     beta=0.10
     Davidson diagonalization with overlap
     ethr =  5.91E-07,  avg # of iterations =  3.1

     total cpu time spent up to now is     3439.3 secs

     total energy              =   -1452.32482738 Ry
     Harris-Foulkes estimate   =   -1452.32489612 Ry
     estimated scf accuracy    <       0.00035551 Ry

     iteration # 12     ecut=    36.00 Ry     beta=0.10
     Davidson diagonalization with overlap
     ethr =  1.78E-07,  avg # of iterations =  3.2

     total cpu time spent up to now is     3681.3 secs

     total energy              =   -1452.32476160 Ry
     Harris-Foulkes estimate   =   -1452.32484815 Ry
     estimated scf accuracy    <       0.00023217 Ry

     iteration # 13     ecut=    36.00 Ry     beta=0.10
     Davidson diagonalization with overlap
     ethr =  1.16E-07,  avg # of iterations =  4.0

     total cpu time spent up to now is     3978.9 secs

     total energy              =   -1452.32484495 Ry
     Harris-Foulkes estimate   =   -1452.32483873 Ry
     estimated scf accuracy    <       0.00006499 Ry

     iteration # 14     ecut=    36.00 Ry     beta=0.10
     Davidson diagonalization with overlap
     ethr =  3.25E-08,  avg # of iterations =  1.0

     total cpu time spent up to now is     4176.2 secs

     total energy              =   -1452.32482828 Ry
     Harris-Foulkes estimate   =   -1452.32484572 Ry
     estimated scf accuracy    <       0.00006118 Ry

     iteration # 15     ecut=    36.00 Ry     beta=0.10
     Davidson diagonalization with overlap
     ethr =  3.06E-08,  avg # of iterations =  3.0

     total cpu time spent up to now is     4427.5 secs

     total energy              =   -1452.32484201 Ry
     Harris-Foulkes estimate   =   -1452.32483573 Ry
     estimated scf accuracy    <       0.00002146 Ry

     iteration # 16     ecut=    36.00 Ry     beta=0.10
     Davidson diagonalization with overlap
     ethr =  1.07E-08,  avg # of iterations =  3.0

     total cpu time spent up to now is     4669.4 secs

     total energy              =   -1452.32484540 Ry
     Harris-Foulkes estimate   =   -1452.32484528 Ry
     estimated scf accuracy    <       0.00001456 Ry

     iteration # 17     ecut=    36.00 Ry     beta=0.10
     Davidson diagonalization with overlap
     ethr =  7.28E-09,  avg # of iterations =  3.3

     total cpu time spent up to now is     4915.6 secs

     total energy              =   -1452.32484938 Ry
     Harris-Foulkes estimate   =   -1452.32484664 Ry
     estimated scf accuracy    <       0.00000256 Ry

     iteration # 18     ecut=    36.00 Ry     beta=0.10
     Davidson diagonalization with overlap
     ethr =  1.28E-09,  avg # of iterations =  3.1

     total cpu time spent up to now is     5184.4 secs

     total energy              =   -1452.32485255 Ry
     Harris-Foulkes estimate   =   -1452.32484992 Ry
     estimated scf accuracy    <       0.00000109 Ry

     iteration # 19     ecut=    36.00 Ry     beta=0.10
     Davidson diagonalization with overlap
     ethr =  5.43E-10,  avg # of iterations =  4.0

     total cpu time spent up to now is     5484.7 secs

     total energy              =   -1452.32485431 Ry
     Harris-Foulkes estimate   =   -1452.32485282 Ry
     estimated scf accuracy    <       0.00000199 Ry

     iteration # 20     ecut=    36.00 Ry     beta=0.10
     Davidson diagonalization with overlap
     ethr =  5.43E-10,  avg # of iterations =  3.0

     total cpu time spent up to now is     5729.6 secs

     total energy              =   -1452.32485616 Ry
     Harris-Foulkes estimate   =   -1452.32485442 Ry
     estimated scf accuracy    <       0.00000075 Ry

     iteration # 21     ecut=    36.00 Ry     beta=0.10
     Davidson diagonalization with overlap
     ethr =  3.76E-10,  avg # of iterations =  2.1

     total cpu time spent up to now is     5947.6 secs

     total energy              =   -1452.32485769 Ry
     Harris-Foulkes estimate   =   -1452.32485620 Ry
     estimated scf accuracy    <       0.00000041 Ry

     iteration # 22     ecut=    36.00 Ry     beta=0.10
     Davidson diagonalization with overlap
     ethr =  2.03E-10,  avg # of iterations =  1.0

     total cpu time spent up to now is     6143.9 secs

     total energy              =   -1452.32485886 Ry
     Harris-Foulkes estimate   =   -1452.32485770 Ry
     estimated scf accuracy    <       0.00000040 Ry

     iteration # 23     ecut=    36.00 Ry     beta=0.10
     Davidson diagonalization with overlap
     ethr =  1.98E-10,  avg # of iterations =  3.1

     total cpu time spent up to now is     6387.1 secs

     total energy              =   -1452.32485984 Ry
     Harris-Foulkes estimate   =   -1452.32485889 Ry
     estimated scf accuracy    <       0.00000022 Ry

     iteration # 24     ecut=    36.00 Ry     beta=0.10
     Davidson diagonalization with overlap
     ethr =  1.08E-10,  avg # of iterations =  3.1

     total cpu time spent up to now is     6641.0 secs

     total energy              =   -1452.32486067 Ry
     Harris-Foulkes estimate   =   -1452.32485988 Ry
     estimated scf accuracy    <       0.00000027 Ry

     iteration # 25     ecut=    36.00 Ry     beta=0.10
     Davidson diagonalization with overlap
     ethr =  1.08E-10,  avg # of iterations =  3.3

     total cpu time spent up to now is     6871.2 secs

     total energy              =   -1452.32486139 Ry
     Harris-Foulkes estimate   =   -1452.32486068 Ry
     estimated scf accuracy    <       0.00000017 Ry

     iteration # 26     ecut=    36.00 Ry     beta=0.10
     Davidson diagonalization with overlap
     ethr =  8.62E-11,  avg # of iterations =  3.0

     total cpu time spent up to now is     7109.9 secs

     total energy              =   -1452.32486193 Ry
     Harris-Foulkes estimate   =   -1452.32486140 Ry
     estimated scf accuracy    <       0.00000008 Ry

     iteration # 27     ecut=    36.00 Ry     beta=0.10
     Davidson diagonalization with overlap
     ethr =  3.88E-11,  avg # of iterations =  3.3

     total cpu time spent up to now is     7369.6 secs

     total energy              =   -1452.32486235 Ry
     Harris-Foulkes estimate   =   -1452.32486194 Ry
     estimated scf accuracy    <       0.00000006 Ry

     iteration # 28     ecut=    36.00 Ry     beta=0.10
     Davidson diagonalization with overlap
     ethr =  3.23E-11,  avg # of iterations =  1.0

     total cpu time spent up to now is     7565.1 secs

     total energy              =   -1452.32486269 Ry
     Harris-Foulkes estimate   =   -1452.32486235 Ry
     estimated scf accuracy    <       0.00000004 Ry

     iteration # 29     ecut=    36.00 Ry     beta=0.10
     Davidson diagonalization with overlap
     ethr =  2.24E-11,  avg # of iterations =  3.0

     total cpu time spent up to now is     7800.2 secs

     total energy              =   -1452.32486296 Ry
     Harris-Foulkes estimate   =   -1452.32486269 Ry
     estimated scf accuracy    <       0.00000003 Ry

     iteration # 30     ecut=    36.00 Ry     beta=0.10
     Davidson diagonalization with overlap
     ethr =  1.67E-11,  avg # of iterations =  1.0

     total cpu time spent up to now is     7998.1 secs

     total energy              =   -1452.32486317 Ry
     Harris-Foulkes estimate   =   -1452.32486297 Ry
     estimated scf accuracy    <       0.00000003 Ry

     iteration # 31     ecut=    36.00 Ry     beta=0.10
     Davidson diagonalization with overlap
     ethr =  1.48E-11,  avg # of iterations =  2.0

     total cpu time spent up to now is     8213.7 secs

     total energy              =   -1452.32486335 Ry
     Harris-Foulkes estimate   =   -1452.32486317 Ry
     estimated scf accuracy    <       0.00000002 Ry

     iteration # 32     ecut=    36.00 Ry     beta=0.10
     Davidson diagonalization with overlap
     ethr =  8.33E-12,  avg # of iterations =  1.0

     total cpu time spent up to now is     8410.9 secs

     total energy              =   -1452.32486351 Ry
     Harris-Foulkes estimate   =   -1452.32486335 Ry
     estimated scf accuracy    <       0.00000001 Ry

     iteration # 33     ecut=    36.00 Ry     beta=0.10
     Davidson diagonalization with overlap
     ethr =  5.70E-12,  avg # of iterations =  3.8

     total cpu time spent up to now is     8703.9 secs

     total energy              =   -1452.32486362 Ry
     Harris-Foulkes estimate   =   -1452.32486351 Ry
     estimated scf accuracy    <       0.00000001 Ry

     iteration # 34     ecut=    36.00 Ry     beta=0.10
     Davidson diagonalization with overlap
     ethr =  5.70E-12,  avg # of iterations =  3.0

     total cpu time spent up to now is     8950.6 secs

     End of self-consistent calculation

     Number of k-points >= 100: set verbosity='high' to print the bands.

     highest occupied, lowest unoccupied level (ev):     2.7754    4.0376

!    total energy              =   -1452.32486413 Ry
     Harris-Foulkes estimate   =   -1452.32486363 Ry
     estimated scf accuracy    <          3.3E-09 Ry

     The total energy is the sum of the following terms:

     one-electron contribution =    -441.95838941 Ry
     hartree contribution      =     302.12574919 Ry
     xc contribution           =    -734.97601636 Ry
     ewald contribution        =    -577.51620756 Ry

     convergence has been achieved in  34 iterations

     Forces acting on atoms (cartesian axes, Ry/au):

     atom    1 type  5   force =    -0.00125360    0.00078494   -0.00094451
     atom    2 type  5   force =     0.00202079   -0.00048650   -0.00099994
     atom    3 type  5   force =     0.00021485   -0.00038151   -0.00099582
     atom    4 type  5   force =    -0.00098550    0.00008542   -0.00093090
     atom    5 type  4   force =    -0.00079429    0.00127296    0.00904512
     atom    6 type  4   force =    -0.00066941   -0.00005956    0.00658986
     atom    7 type  4   force =    -0.00068772    0.00133159    0.00749230
     atom    8 type  4   force =    -0.00076124    0.00005123    0.01010461
     atom    9 type  4   force =    -0.00043915   -0.00015546   -0.00107483
     atom   10 type  4   force =     0.00069694   -0.00059421   -0.00110444
     atom   11 type  4   force =    -0.00210398    0.00030224    0.00800865
     atom   12 type  4   force =    -0.00158437    0.00011585    0.00909782
     atom   13 type  4   force =    -0.00208027    0.00029247    0.00869146
     atom   14 type  4   force =    -0.00165646    0.00013732    0.00754604
     atom   15 type  4   force =     0.00112276   -0.00004550   -0.00109250
     atom   16 type  4   force =     0.00097837    0.00001030   -0.00110113
     atom   17 type  2   force =     0.00151753   -0.00002020   -0.04878131
     atom   18 type  1   force =    -0.00238281    0.00357774   -0.00009859
     atom   19 type  1   force =    -0.00231231   -0.00356644   -0.00020356
     atom   20 type  1   force =     0.00376362    0.00007351   -0.00096046
     atom   21 type  1   force =     0.00477650   -0.00004967   -0.00175570
     atom   22 type  1   force =     0.00045686    0.00215273   -0.00422353
     atom   23 type  1   force =     0.00044477   -0.00233380   -0.00405142
     atom   24 type  3   force =    -0.00278478    0.00007503    0.04547910
     atom   25 type  2   force =     0.00144353   -0.00004246   -0.04887493
     atom   26 type  1   force =    -0.00260646    0.00359575    0.00002743
     atom   27 type  1   force =    -0.00255746   -0.00360920    0.00012486
     atom   28 type  1   force =     0.00388146   -0.00003925   -0.00118598
     atom   29 type  1   force =     0.00490436    0.00005451   -0.00147696
     atom   30 type  1   force =     0.00065193    0.00210131   -0.00434225
     atom   31 type  1   force =     0.00072174   -0.00215140   -0.00439036
     atom   32 type  3   force =    -0.00280558    0.00006322    0.04551555
     atom   33 type  2   force =    -0.00112150   -0.00104162   -0.04882645
     atom   34 type  1   force =     0.00316313    0.00319328    0.00026730
     atom   35 type  1   force =    -0.00383020    0.00130501   -0.00072288
     atom   36 type  1   force =     0.00140256   -0.00376797   -0.00068075
     atom   37 type  1   force =    -0.00038197   -0.00398599   -0.00256497
     atom   38 type  1   force =     0.00052214    0.00053713   -0.00494876
     atom   39 type  1   force =    -0.00396036   -0.00046239   -0.00256103
     atom   40 type  3   force =     0.00187938    0.00188003    0.04546498
     atom   41 type  2   force =     0.00153551   -0.00001219   -0.04877550
     atom   42 type  1   force =    -0.00241862    0.00358410   -0.00008809
     atom   43 type  1   force =    -0.00235478   -0.00358106   -0.00017236
     atom   44 type  1   force =     0.00377264    0.00005421   -0.00098406
     atom   45 type  1   force =     0.00470204   -0.00010000   -0.00182805
     atom   46 type  1   force =     0.00034393    0.00215399   -0.00419745
     atom   47 type  1   force =     0.00029879   -0.00241298   -0.00397361
     atom   48 type  3   force =    -0.00268330    0.00011349    0.04545800

     Total force =     0.137638     Total SCF correction =     0.000065

     BFGS Geometry Optimization

     number of scf cycles    =   1
     number of bfgs steps    =   0

     energy   new            =   -1452.3248641305 Ry

     new trust radius        =       0.0488962631 bohr
     new conv_thr            =       0.0000000100 Ry


ATOMIC_POSITIONS (angstrom)
Pb      -0.000663377   0.000415373  -0.000499813
Pb       4.425680354   4.424353555  -0.000529145
Pb       0.000113696  -0.000201887   6.320584037
Pb       4.424089498   4.424656204   6.320618388
I        2.211885682   2.212979623   0.004786470
I        6.636562763   2.212274483   0.003487205
I        6.636553072   6.637621648   0.003964756
I        2.211903167   6.636944110   0.005347129
I       -0.000232390  -0.000082268   3.159987225
I        4.424979805   4.424296557   3.159971556
I        2.211192622   2.212465940   6.325348993
I        6.636078588   2.212367308   6.325925360
I        6.635816170   6.637071768   6.325710321
I        2.211429439   6.636989669   6.325104194
I        0.000594141  -0.000024076   9.481088875
I        4.425128731   4.424616448   9.481084305
C        4.425414043   8.849212309  10.230856041
H        3.898034071   9.745219256  10.590887830
H        3.911730378   7.945346722  10.590832280
H        5.463576622   8.857147900  10.590431745
H        3.458184617   8.841876715   8.339875921
H        4.915670759   8.014883176   8.338570006
H        4.902984360   9.690788008   8.338661079
N        4.423137359   8.849262707   8.730713502
C        8.849985884   4.424589530  10.230806500
H        8.322526720   5.320617787  10.590954515
H        8.336211652   3.520713092  10.591006075
H        9.888249978   4.432477230  10.590312404
H        7.882863276   4.417320844   8.340023425
H        9.340384987   3.590244965   8.338507180
H        9.327741930   5.266273527   8.338481719
N        8.847737353   4.424645453   8.730732792
C        4.424018529   8.848668798   3.909718157
H        5.153961245   9.589736991   4.269970447
H        3.418904094   9.110681361   4.269446471
H        4.701360111   7.847627156   4.269468763
H        4.166555539   9.781153846   2.018336675
H        3.744910605   8.159172578   2.017075228
H        5.360350038   8.605261193   2.018338763
N        4.425606526   8.850214868   2.409595032
C        8.850033557   4.424602551   3.909745117
H        8.322625120   5.320608623   4.269782387
H        8.336317904   3.520724983   4.269737793
H        9.888192394   4.432523687   4.269308260
H        7.882755211   4.417236081   2.018726638
H        9.340222001   3.590269843   2.017472803
H        9.327517113   5.266132108   2.017591255
N        8.847801056   4.424669056   2.409591339



     Writing output data file 00_15_1101_75.save
     NEW-OLD atomic charge density approx. for the potential

     total cpu time spent up to now is     9027.3 secs

     per-process dynamical memory:   332.7 Mb

     Self-consistent Calculation

     iteration #  1     ecut=    36.00 Ry     beta=0.10
     Davidson diagonalization with overlap
     c_bands:  2 eigenvalues not converged
     c_bands:  1 eigenvalues not converged
     c_bands:  1 eigenvalues not converged
     c_bands:  1 eigenvalues not converged
     c_bands:  1 eigenvalues not converged
     c_bands:  1 eigenvalues not converged
     c_bands:  2 eigenvalues not converged
     c_bands:  2 eigenvalues not converged
     c_bands:  1 eigenvalues not converged
     c_bands:  1 eigenvalues not converged
     c_bands:  1 eigenvalues not converged
     c_bands:  1 eigenvalues not converged
     c_bands:  2 eigenvalues not converged
     c_bands:  1 eigenvalues not converged
     c_bands:  1 eigenvalues not converged
     c_bands:  1 eigenvalues not converged
     c_bands:  1 eigenvalues not converged
     c_bands:  1 eigenvalues not converged
     c_bands:  1 eigenvalues not converged
     c_bands:  1 eigenvalues not converged
     c_bands:  1 eigenvalues not converged
     c_bands:  1 eigenvalues not converged
     c_bands:  1 eigenvalues not converged
     c_bands:  1 eigenvalues not converged
     c_bands:  1 eigenvalues not converged
     c_bands:  1 eigenvalues not converged
     c_bands:  1 eigenvalues not converged
     c_bands:  1 eigenvalues not converged
     c_bands:  1 eigenvalues not converged
     c_bands:  1 eigenvalues not converged
     c_bands:  1 eigenvalues not converged
     c_bands:  1 eigenvalues not converged
     c_bands:  1 eigenvalues not converged
     c_bands:  1 eigenvalues not converged
     c_bands:  2 eigenvalues not converged
     c_bands:  1 eigenvalues not converged
     c_bands:  1 eigenvalues not converged
     c_bands:  2 eigenvalues not converged
     c_bands:  1 eigenvalues not converged
     c_bands:  2 eigenvalues not converged
     c_bands:  1 eigenvalues not converged
     c_bands:  1 eigenvalues not converged
     c_bands:  2 eigenvalues not converged
     c_bands:  1 eigenvalues not converged
     c_bands:  2 eigenvalues not converged
     c_bands:  1 eigenvalues not converged
     c_bands:  1 eigenvalues not converged
     c_bands:  1 eigenvalues not converged
     c_bands:  1 eigenvalues not converged
     c_bands:  1 eigenvalues not converged
     c_bands:  1 eigenvalues not converged
     c_bands:  1 eigenvalues not converged
     c_bands:  1 eigenvalues not converged
     ethr =  1.00E-06,  avg # of iterations = 16.0

     total cpu time spent up to now is     9720.7 secs

     total energy              =   -1452.33489511 Ry
     Harris-Foulkes estimate   =   -1452.33504471 Ry
     estimated scf accuracy    <       0.00341690 Ry

     iteration #  2     ecut=    36.00 Ry     beta=0.10
     Davidson diagonalization with overlap
     c_bands:  1 eigenvalues not converged
     c_bands:  1 eigenvalues not converged
     c_bands:  1 eigenvalues not converged
     c_bands:  1 eigenvalues not converged
     c_bands:  1 eigenvalues not converged
     c_bands:  1 eigenvalues not converged
     c_bands:  1 eigenvalues not converged
     c_bands:  1 eigenvalues not converged
     c_bands:  1 eigenvalues not converged
     c_bands:  2 eigenvalues not converged
     c_bands:  1 eigenvalues not converged
     c_bands:  1 eigenvalues not converged
     c_bands:  1 eigenvalues not converged
     ethr =  1.71E-06,  avg # of iterations =  4.4

     total cpu time spent up to now is     9965.8 secs

     total energy              =   -1452.33351113 Ry
     Harris-Foulkes estimate   =   -1452.33490115 Ry
     estimated scf accuracy    <       0.00293323 Ry

     iteration #  3     ecut=    36.00 Ry     beta=0.10
     Davidson diagonalization with overlap
     c_bands:  1 eigenvalues not converged
     c_bands:  1 eigenvalues not converged
     c_bands:  1 eigenvalues not converged
     c_bands:  1 eigenvalues not converged
     ethr =  1.47E-06,  avg # of iterations =  5.0

     total cpu time spent up to now is    10269.2 secs

     total energy              =   -1452.33414699 Ry
     Harris-Foulkes estimate   =   -1452.33416071 Ry
     estimated scf accuracy    <       0.00020393 Ry

     iteration #  4     ecut=    36.00 Ry     beta=0.10
     Davidson diagonalization with overlap
     ethr =  1.02E-07,  avg # of iterations =  2.0

     total cpu time spent up to now is    10488.2 secs

     total energy              =   -1452.33415670 Ry
     Harris-Foulkes estimate   =   -1452.33415439 Ry
     estimated scf accuracy    <       0.00013809 Ry

     iteration #  5     ecut=    36.00 Ry     beta=0.10
     Davidson diagonalization with overlap
     ethr =  6.90E-08,  avg # of iterations =  1.0

     total cpu time spent up to now is    10685.2 secs

     total energy              =   -1452.33411634 Ry
     Harris-Foulkes estimate   =   -1452.33415766 Ry
     estimated scf accuracy    <       0.00013233 Ry

     iteration #  6     ecut=    36.00 Ry     beta=0.10
     Davidson diagonalization with overlap
     ethr =  6.62E-08,  avg # of iterations =  3.1

     total cpu time spent up to now is    10932.4 secs

     total energy              =   -1452.33413781 Ry
     Harris-Foulkes estimate   =   -1452.33413325 Ry
     estimated scf accuracy    <       0.00001250 Ry

     iteration #  7     ecut=    36.00 Ry     beta=0.10
     Davidson diagonalization with overlap
     ethr =  6.25E-09,  avg # of iterations =  3.5

     total cpu time spent up to now is    11223.6 secs

     total energy              =   -1452.33414069 Ry
     Harris-Foulkes estimate   =   -1452.33414205 Ry
     estimated scf accuracy    <       0.00001864 Ry

     iteration #  8     ecut=    36.00 Ry     beta=0.10
     Davidson diagonalization with overlap
     ethr =  6.25E-09,  avg # of iterations =  1.0

     total cpu time spent up to now is    11420.7 secs

     total energy              =   -1452.33413624 Ry
     Harris-Foulkes estimate   =   -1452.33414086 Ry
     estimated scf accuracy    <       0.00001161 Ry

     iteration #  9     ecut=    36.00 Ry     beta=0.10
     Davidson diagonalization with overlap
     ethr =  5.80E-09,  avg # of iterations =  4.0

     total cpu time spent up to now is    11752.0 secs

     total energy              =   -1452.33414166 Ry
     Harris-Foulkes estimate   =   -1452.33414565 Ry
     estimated scf accuracy    <       0.00001575 Ry

     iteration # 10     ecut=    36.00 Ry     beta=0.10
     Davidson diagonalization with overlap
     ethr =  5.80E-09,  avg # of iterations =  3.0

     total cpu time spent up to now is    12001.1 secs

     total energy              =   -1452.33414220 Ry
     Harris-Foulkes estimate   =   -1452.33414267 Ry
     estimated scf accuracy    <       0.00000321 Ry

     iteration # 11     ecut=    36.00 Ry     beta=0.10
     Davidson diagonalization with overlap
     ethr =  1.61E-09,  avg # of iterations =  3.7

     total cpu time spent up to now is    12258.9 secs

     total energy              =   -1452.33414246 Ry
     Harris-Foulkes estimate   =   -1452.33414245 Ry
     estimated scf accuracy    <       0.00000062 Ry

     iteration # 12     ecut=    36.00 Ry     beta=0.10
     Davidson diagonalization with overlap
     ethr =  3.09E-10,  avg # of iterations =  4.0

     total cpu time spent up to now is    12541.8 secs

     total energy              =   -1452.33414326 Ry
     Harris-Foulkes estimate   =   -1452.33414262 Ry
     estimated scf accuracy    <       0.00000006 Ry

     iteration # 13     ecut=    36.00 Ry     beta=0.10
     Davidson diagonalization with overlap
     ethr =  3.05E-11,  avg # of iterations =  3.2

     total cpu time spent up to now is    12804.5 secs

     total energy              =   -1452.33414374 Ry
     Harris-Foulkes estimate   =   -1452.33414328 Ry
     estimated scf accuracy    <       0.00000010 Ry

     iteration # 14     ecut=    36.00 Ry     beta=0.10
     Davidson diagonalization with overlap
     ethr =  3.05E-11,  avg # of iterations =  2.0

     total cpu time spent up to now is    13022.0 secs

     total energy              =   -1452.33414415 Ry
     Harris-Foulkes estimate   =   -1452.33414375 Ry
     estimated scf accuracy    <       0.00000008 Ry

     iteration # 15     ecut=    36.00 Ry     beta=0.10
     Davidson diagonalization with overlap
     ethr =  3.05E-11,  avg # of iterations =  3.0

     total cpu time spent up to now is    13272.9 secs

     End of self-consistent calculation

     Number of k-points >= 100: set verbosity='high' to print the bands.

     highest occupied, lowest unoccupied level (ev):     2.7722    4.0376

!    total energy              =   -1452.33414587 Ry
     Harris-Foulkes estimate   =   -1452.33414416 Ry
     estimated scf accuracy    <          5.4E-09 Ry

     The total energy is the sum of the following terms:

     one-electron contribution =    -443.59132405 Ry
     hartree contribution      =     302.89303363 Ry
     xc contribution           =    -734.96020745 Ry
     ewald contribution        =    -576.67564800 Ry

     convergence has been achieved in  15 iterations

     Forces acting on atoms (cartesian axes, Ry/au):

     atom    1 type  5   force =    -0.00117738    0.00076513   -0.00103889
     atom    2 type  5   force =     0.00192045   -0.00043756   -0.00109634
     atom    3 type  5   force =     0.00010803   -0.00035270   -0.00108736
     atom    4 type  5   force =    -0.00096172    0.00006373   -0.00102293
     atom    5 type  4   force =    -0.00079037    0.00129218    0.00927732
     atom    6 type  4   force =    -0.00059567   -0.00000582    0.00663817
     atom    7 type  4   force =    -0.00068006    0.00133726    0.00760440
     atom    8 type  4   force =    -0.00066263    0.00010746    0.01042670
     atom    9 type  4   force =    -0.00045718   -0.00014944   -0.00095701
     atom   10 type  4   force =     0.00071196   -0.00060107   -0.00098590
     atom   11 type  4   force =    -0.00218226    0.00039312    0.00821493
     atom   12 type  4   force =    -0.00168508   -0.00000396    0.00922293
     atom   13 type  4   force =    -0.00216223    0.00037968    0.00884626
     atom   14 type  4   force =    -0.00175770    0.00000333    0.00778778
     atom   15 type  4   force =     0.00113871   -0.00005091   -0.00097452
     atom   16 type  4   force =     0.00096402    0.00001659   -0.00098210
     atom   17 type  2   force =    -0.00120059    0.00004991    0.00062565
     atom   18 type  1   force =     0.00337791   -0.00595070   -0.00549462
     atom   19 type  1   force =     0.00327302    0.00597910   -0.00557747
     atom   20 type  1   force =    -0.00562740   -0.00000541   -0.00610692
     atom   21 type  1   force =     0.00846908   -0.00000264    0.00367519
     atom   22 type  1   force =    -0.00425326    0.00939138    0.00299473
     atom   23 type  1   force =    -0.00405317   -0.00942292    0.00306968
     atom   24 type  3   force =     0.00361479   -0.00013479   -0.00816576
     atom   25 type  2   force =    -0.00125558    0.00001859    0.00070411
     atom   26 type  1   force =     0.00322473   -0.00600548   -0.00541690
     atom   27 type  1   force =     0.00310380    0.00604228   -0.00533038
     atom   28 type  1   force =    -0.00559212   -0.00011214   -0.00633085
     atom   29 type  1   force =     0.00845683    0.00008568    0.00385882
     atom   30 type  1   force =    -0.00415442    0.00942735    0.00292952
     atom   31 type  1   force =    -0.00393061   -0.00946521    0.00286529
     atom   32 type  3   force =     0.00395034   -0.00000495   -0.00827566
     atom   33 type  2   force =     0.00082774    0.00083191    0.00066234
     atom   34 type  1   force =    -0.00507739   -0.00516277   -0.00524333
     atom   35 type  1   force =     0.00579013   -0.00134709   -0.00595656
     atom   36 type  1   force =    -0.00141779    0.00586793   -0.00592689
     atom   37 type  1   force =     0.00143488   -0.00907218    0.00347271
     atom   38 type  1   force =     0.00751771    0.00763881    0.00275347
     atom   39 type  1   force =    -0.00906809    0.00126959    0.00347884
     atom   40 type  3   force =    -0.00245358   -0.00246640   -0.00819793
     atom   41 type  2   force =    -0.00120707    0.00004602    0.00063595
     atom   42 type  1   force =     0.00335467   -0.00595407   -0.00549150
     atom   43 type  1   force =     0.00324769    0.00598925   -0.00556378
     atom   44 type  1   force =    -0.00560803   -0.00002208   -0.00612041
     atom   45 type  1   force =     0.00851899   -0.00004575    0.00365279
     atom   46 type  1   force =    -0.00431747    0.00936115    0.00300007
     atom   47 type  1   force =    -0.00411180   -0.00937703    0.00308797
     atom   48 type  3   force =     0.00343517   -0.00020436   -0.00814161

     Total force =     0.055742     Total SCF correction =     0.000042

     number of scf cycles    =   2
     number of bfgs steps    =   1

     energy   old            =   -1452.3248641305 Ry
     energy   new            =   -1452.3341458722 Ry

     CASE: energy  _new < energy  _old

     new trust radius        =       0.0112905987 bohr
     new conv_thr            =       0.0000000010 Ry


ATOMIC_POSITIONS (angstrom)
Pb      -0.001345074   0.000856136  -0.001089145
Pb       4.426790471   4.424098660  -0.001151305
Pb       0.000183766  -0.000406549   6.319966666
Pb       4.423535570   4.424694430   6.320038042
I        2.211431624   2.213720033   0.010095219
I        6.636215222   2.212267091   0.007294633
I        6.636162064   6.638388961   0.008322108
I        2.211515308   6.637001568   0.011308978
I       -0.000493503  -0.000168518   3.159428913
I        4.425387421   4.423951989   3.159396606
I        2.209945652   2.212684788   6.330049761
I        6.635118751   2.212374063   6.331210949
I        6.634580978   6.637283175   6.330777421
I        2.210427948   6.637001679   6.329557056
I        0.001246690  -0.000052896   9.480520497
I        4.425683271   4.424625497   9.480511496
C        4.424929589   8.849235677  10.227492175
H        3.899539279   9.742520887  10.588139908
H        3.913188585   7.948060107  10.588035122
H        5.461053509   8.857150743  10.587313484
H        3.462768584   8.841871657   8.341576655
H        4.913583832   8.019729437   8.339745392
H        4.900996316   9.685912375   8.339886815
N        4.424730424   8.849201133   8.730067828
C        8.849468429   4.424595604  10.227474712
H        8.323938673   5.317893456  10.588254851
H        8.337566986   3.523454764  10.588356908
H        9.885753342   4.432418341  10.587065462
H        7.887450767   4.417367687   8.341836751
H        9.338362055   3.595105290   8.339641097
H        9.325835888   5.261390543   8.339579973
N        8.849496210   4.424647749   8.730035048
C        4.424346859   8.849005229   3.906369192
H        5.151667207   9.587402641   4.267375429
H        3.421503353   9.110107824   4.266421108
H        4.700758666   7.850269908   4.266461371
H        4.167242417   9.776328644   2.019875438
H        3.748699482   8.163022984   2.018075635
H        5.355528807   8.605859567   2.019880884
N        4.424524401   8.849126399   2.408932251
C        8.849547228   4.424624585   3.906386826
H        8.324116041   5.317909055   4.267036813
H        8.337760274   3.523442327   4.266949816
H        9.885679624   4.432516758   4.266181495
H        7.887358462   4.417205724   2.020410750
H        9.338094539   3.595101118   2.018652816
H        9.325488829   5.261273398   2.018831980
N        8.849312178   4.424575682   2.408956120



     Writing output data file 00_15_1101_75.save
     NEW-OLD atomic charge density approx. for the potential

     total cpu time spent up to now is    13350.0 secs

     per-process dynamical memory:   332.7 Mb

     Self-consistent Calculation

     iteration #  1     ecut=    36.00 Ry     beta=0.10
     Davidson diagonalization with overlap
     ethr =  1.00E-06,  avg # of iterations =  4.1

     total cpu time spent up to now is    13826.4 secs

     total energy              =   -1452.33633793 Ry
     Harris-Foulkes estimate   =   -1452.33635975 Ry
     estimated scf accuracy    <       0.00040631 Ry

     iteration #  2     ecut=    36.00 Ry     beta=0.10
     Davidson diagonalization with overlap
     ethr =  2.03E-07,  avg # of iterations =  1.1

     total cpu time spent up to now is    14024.8 secs

     total energy              =   -1452.33618781 Ry
     Harris-Foulkes estimate   =   -1452.33634478 Ry
     estimated scf accuracy    <       0.00034294 Ry

     iteration #  3     ecut=    36.00 Ry     beta=0.10
     Davidson diagonalization with overlap
     ethr =  1.71E-07,  avg # of iterations =  3.0

     total cpu time spent up to now is    14295.1 secs

     total energy              =   -1452.33626168 Ry
     Harris-Foulkes estimate   =   -1452.33626845 Ry
     estimated scf accuracy    <       0.00002311 Ry

     iteration #  4     ecut=    36.00 Ry     beta=0.10
     Davidson diagonalization with overlap
     ethr =  1.16E-08,  avg # of iterations =  3.0

     total cpu time spent up to now is    14557.1 secs

     total energy              =   -1452.33626221 Ry
     Harris-Foulkes estimate   =   -1452.33626401 Ry
     estimated scf accuracy    <       0.00000860 Ry

     iteration #  5     ecut=    36.00 Ry     beta=0.10
     Davidson diagonalization with overlap
     ethr =  4.30E-09,  avg # of iterations =  3.0

     total cpu time spent up to now is    14798.4 secs

     total energy              =   -1452.33626204 Ry
     Harris-Foulkes estimate   =   -1452.33626279 Ry
     estimated scf accuracy    <       0.00000301 Ry

     iteration #  6     ecut=    36.00 Ry     beta=0.10
     Davidson diagonalization with overlap
     ethr =  1.51E-09,  avg # of iterations =  3.0

     total cpu time spent up to now is    15055.4 secs

     total energy              =   -1452.33626231 Ry
     Harris-Foulkes estimate   =   -1452.33626231 Ry
     estimated scf accuracy    <       0.00000071 Ry

     iteration #  7     ecut=    36.00 Ry     beta=0.10
     Davidson diagonalization with overlap
     ethr =  3.56E-10,  avg # of iterations =  2.8

     total cpu time spent up to now is    15281.5 secs

     total energy              =   -1452.33626225 Ry
     Harris-Foulkes estimate   =   -1452.33626234 Ry
     estimated scf accuracy    <       0.00000052 Ry

     iteration #  8     ecut=    36.00 Ry     beta=0.10
     Davidson diagonalization with overlap
     ethr =  2.58E-10,  avg # of iterations =  3.4

     total cpu time spent up to now is    15554.9 secs

     total energy              =   -1452.33626239 Ry
     Harris-Foulkes estimate   =   -1452.33626235 Ry
     estimated scf accuracy    <       0.00000011 Ry

     iteration #  9     ecut=    36.00 Ry     beta=0.10
     Davidson diagonalization with overlap
     ethr =  5.27E-11,  avg # of iterations =  2.3

     total cpu time spent up to now is    15771.5 secs

     total energy              =   -1452.33626241 Ry
     Harris-Foulkes estimate   =   -1452.33626239 Ry
     estimated scf accuracy    <       0.00000010 Ry

     iteration # 10     ecut=    36.00 Ry     beta=0.10
     Davidson diagonalization with overlap
     ethr =  5.17E-11,  avg # of iterations =  3.0

     total cpu time spent up to now is    16031.9 secs

     total energy              =   -1452.33626241 Ry
     Harris-Foulkes estimate   =   -1452.33626243 Ry
     estimated scf accuracy    <       0.00000012 Ry

     iteration # 11     ecut=    36.00 Ry     beta=0.10
     Davidson diagonalization with overlap
     ethr =  5.17E-11,  avg # of iterations =  3.0

     total cpu time spent up to now is    16305.6 secs

     total energy              =   -1452.33626246 Ry
     Harris-Foulkes estimate   =   -1452.33626243 Ry
     estimated scf accuracy    <       0.00000001 Ry

     iteration # 12     ecut=    36.00 Ry     beta=0.10
     Davidson diagonalization with overlap
     ethr =  6.26E-12,  avg # of iterations =  3.0

     total cpu time spent up to now is    16567.1 secs

     total energy              =   -1452.33626247 Ry
     Harris-Foulkes estimate   =   -1452.33626246 Ry
     estimated scf accuracy    <       0.00000001 Ry

     iteration # 13     ecut=    36.00 Ry     beta=0.10
     Davidson diagonalization with overlap
     ethr =  6.26E-12,  avg # of iterations =  4.0

     total cpu time spent up to now is    16886.5 secs

     total energy              =   -1452.33626249 Ry
     Harris-Foulkes estimate   =   -1452.33626248 Ry
     estimated scf accuracy    <          8.4E-09 Ry

     iteration # 14     ecut=    36.00 Ry     beta=0.10
     Davidson diagonalization with overlap
     ethr =  4.21E-12,  avg # of iterations =  2.0

     total cpu time spent up to now is    17098.1 secs

     total energy              =   -1452.33626250 Ry
     Harris-Foulkes estimate   =   -1452.33626249 Ry
     estimated scf accuracy    <          4.7E-09 Ry

     iteration # 15     ecut=    36.00 Ry     beta=0.10
     Davidson diagonalization with overlap
     ethr =  2.37E-12,  avg # of iterations =  2.0

     total cpu time spent up to now is    17310.3 secs

     total energy              =   -1452.33626252 Ry
     Harris-Foulkes estimate   =   -1452.33626250 Ry
     estimated scf accuracy    <          3.8E-09 Ry

     iteration # 16     ecut=    36.00 Ry     beta=0.10
     Davidson diagonalization with overlap
     ethr =  1.92E-12,  avg # of iterations =  3.0

     total cpu time spent up to now is    17557.3 secs

     total energy              =   -1452.33626253 Ry
     Harris-Foulkes estimate   =   -1452.33626252 Ry
     estimated scf accuracy    <          2.9E-09 Ry

     iteration # 17     ecut=    36.00 Ry     beta=0.10
     Davidson diagonalization with overlap
     ethr =  1.46E-12,  avg # of iterations =  1.5

     total cpu time spent up to now is    17759.9 secs

     total energy              =   -1452.33626253 Ry
     Harris-Foulkes estimate   =   -1452.33626253 Ry
     estimated scf accuracy    <          1.6E-09 Ry

     iteration # 18     ecut=    36.00 Ry     beta=0.10
     Davidson diagonalization with overlap
     ethr =  7.97E-13,  avg # of iterations =  3.3

     total cpu time spent up to now is    18033.1 secs

     End of self-consistent calculation

     Number of k-points >= 100: set verbosity='high' to print the bands.

     highest occupied, lowest unoccupied level (ev):     2.7730    4.0399

!    total energy              =   -1452.33626256 Ry
     Harris-Foulkes estimate   =   -1452.33626253 Ry
     estimated scf accuracy    <          4.6E-10 Ry

     The total energy is the sum of the following terms:

     one-electron contribution =    -444.51647178 Ry
     hartree contribution      =     303.31838451 Ry
     xc contribution           =    -735.03662614 Ry
     ewald contribution        =    -576.10154915 Ry

     convergence has been achieved in  18 iterations

     Forces acting on atoms (cartesian axes, Ry/au):

     atom    1 type  5   force =    -0.00096771    0.00069243   -0.00112396
     atom    2 type  5   force =     0.00167397   -0.00033377   -0.00118139
     atom    3 type  5   force =    -0.00001651   -0.00031643   -0.00117149
     atom    4 type  5   force =    -0.00092553    0.00003724   -0.00110878
     atom    5 type  4   force =    -0.00073277    0.00123414    0.00904241
     atom    6 type  4   force =    -0.00055777   -0.00000423    0.00651638
     atom    7 type  4   force =    -0.00065409    0.00127259    0.00744633
     atom    8 type  4   force =    -0.00060485    0.00008077    0.01012926
     atom    9 type  4   force =    -0.00047338   -0.00013560   -0.00080389
     atom   10 type  4   force =     0.00071783   -0.00059514   -0.00083437
     atom   11 type  4   force =    -0.00206708    0.00039132    0.00802121
     atom   12 type  4   force =    -0.00159484   -0.00002332    0.00898969
     atom   13 type  4   force =    -0.00204500    0.00037183    0.00862857
     atom   14 type  4   force =    -0.00165347   -0.00002007    0.00760890
     atom   15 type  4   force =     0.00112151   -0.00005314   -0.00082233
     atom   16 type  4   force =     0.00092840    0.00002148   -0.00082895
     atom   17 type  2   force =     0.00088558   -0.00001703    0.00102638
     atom   18 type  1   force =     0.00151725   -0.00282057   -0.00465141
     atom   19 type  1   force =     0.00148459    0.00286121   -0.00470886
     atom   20 type  1   force =    -0.00335298    0.00000816   -0.00516362
     atom   21 type  1   force =     0.00346025   -0.00004178    0.00142661
     atom   22 type  1   force =     0.00006328    0.00210186    0.00001246
     atom   23 type  1   force =     0.00008695   -0.00219118    0.00010335
     atom   24 type  3   force =    -0.00072808    0.00000699   -0.00268096
     atom   25 type  2   force =     0.00092178   -0.00000417    0.00106307
     atom   26 type  1   force =     0.00141805   -0.00288830   -0.00460547
     atom   27 type  1   force =     0.00136189    0.00294370   -0.00455035
     atom   28 type  1   force =    -0.00333993   -0.00008215   -0.00531267
     atom   29 type  1   force =     0.00357573    0.00004311    0.00158669
     atom   30 type  1   force =     0.00015534    0.00213732   -0.00004553
     atom   31 type  1   force =     0.00023246   -0.00217668   -0.00007365
     atom   32 type  3   force =    -0.00067484    0.00002982   -0.00271837
     atom   33 type  2   force =    -0.00063561   -0.00059807    0.00105229
     atom   34 type  1   force =    -0.00225767   -0.00229414   -0.00444375
     atom   35 type  1   force =     0.00318811   -0.00066942   -0.00504396
     atom   36 type  1   force =    -0.00069664    0.00323657   -0.00500961
     atom   37 type  1   force =    -0.00026890   -0.00305598    0.00094160
     atom   38 type  1   force =     0.00093797    0.00096462   -0.00039919
     atom   39 type  1   force =    -0.00306569   -0.00032931    0.00096059
     atom   40 type  3   force =     0.00042083    0.00040600   -0.00267648
     atom   41 type  2   force =     0.00084942   -0.00003108    0.00104501
     atom   42 type  1   force =     0.00150529   -0.00282892   -0.00464857
     atom   43 type  1   force =     0.00146992    0.00287729   -0.00469137
     atom   44 type  1   force =    -0.00334365   -0.00000559   -0.00518508
     atom   45 type  1   force =     0.00340835   -0.00008467    0.00138827
     atom   46 type  1   force =     0.00000349    0.00207979    0.00002020
     atom   47 type  1   force =     0.00000907   -0.00219519    0.00013103
     atom   48 type  3   force =    -0.00074031   -0.00000228   -0.00265624

     Total force =     0.033701     Total SCF correction =     0.000038

     number of scf cycles    =   3
     number of bfgs steps    =   2

     energy   old            =   -1452.3341458722 Ry
     energy   new            =   -1452.3362625639 Ry

     CASE: energy  _new < energy  _old

     new trust radius        =       0.0124196585 bohr
     new conv_thr            =       0.0000000010 Ry


ATOMIC_POSITIONS (angstrom)
Pb      -0.002008243   0.001315675  -0.001793822
Pb       4.427916250   4.423863367  -0.001892878
Pb       0.000200013  -0.000618144   6.319231053
Pb       4.422931802   4.424724087   6.319343149
I        2.210949509   2.214524016   0.015948716
I        6.635845412   2.212261177   0.011511358
I        6.635735800   6.639219574   0.013140711
I        2.211110444   6.637055078   0.017868477
I       -0.000794795  -0.000258560   3.158878613
I        4.425848132   4.423567888   3.158826899
I        2.208598509   2.212932300   6.335239701
I        6.634081330   2.212368821   6.337036009
I        6.633247916   6.637519349   6.336365555
I        2.209350411   6.636999985   6.334476891
I        0.001971366  -0.000086466   9.479958465
I        4.426288280   4.424638166   9.479944979
C        4.425294565   8.849232229  10.225402861
H        3.900519133   9.740690905  10.585293078
H        3.914144687   7.949913273  10.585145774
H        5.459017899   8.857157991  10.584106119
H        3.465645717   8.841848808   8.342581698
H        4.913149495   8.021924928   8.339866421
H        4.900595581   9.683661000   8.340068985
N        4.424649126   8.849193022   8.730324631
C        8.849840259   4.424593456  10.225406768
H        8.324841643   5.316025978  10.585445628
H        8.338432028   3.525352061  10.585589110
H        9.883734388   4.432364289  10.583749299
H        7.890388292   4.417400981   8.342954088
H        9.337993411   3.597318967   8.339720632
H        9.325533411   5.259151095   8.339636151
N        8.849477668   4.424664775   8.730263421
C        4.424079241   8.848760259   3.904293953
H        5.150182543   9.585892473   4.264676015
H        3.423475748   9.109705759   4.263300781
H        4.700340837   7.852277649   4.263363063
H        4.167258981   9.773617099   2.020582857
H        3.750038058   8.164388960   2.017933995
H        5.352814515   8.605824057   2.020598248
N        4.424544145   8.849137663   2.409186714
C        8.849895258   4.424614453   3.904307862
H        8.325085594   5.316075062   4.264192263
H        8.338704189   3.525303504   4.264072045
H        9.883651163   4.432514508   4.262961109
H        7.890212641   4.417154811   2.021391076
H        9.337618285   3.597282717   2.018779550
H        9.325036429   5.259021095   2.019033627
N        8.849209923   4.424557258   2.409226299



     Writing output data file 00_15_1101_75.save
     NEW-OLD atomic charge density approx. for the potential

     total cpu time spent up to now is    18110.1 secs

     per-process dynamical memory:   332.7 Mb

     Self-consistent Calculation

     iteration #  1     ecut=    36.00 Ry     beta=0.10
     Davidson diagonalization with overlap
     ethr =  1.00E-06,  avg # of iterations =  3.4

     Threshold (ethr) on eigenvalues was too large:
     Diagonalizing with lowered threshold

     Davidson diagonalization with overlap
     ethr =  7.80E-08,  avg # of iterations =  2.1

     total cpu time spent up to now is    18769.9 secs

     total energy              =   -1452.33744324 Ry
     Harris-Foulkes estimate   =   -1452.33745163 Ry
     estimated scf accuracy    <       0.00016352 Ry

     iteration #  2     ecut=    36.00 Ry     beta=0.10
     Davidson diagonalization with overlap
     ethr =  8.18E-08,  avg # of iterations =  1.0

     total cpu time spent up to now is    18965.3 secs

     total energy              =   -1452.33737170 Ry
     Harris-Foulkes estimate   =   -1452.33744393 Ry
     estimated scf accuracy    <       0.00014205 Ry

     iteration #  3     ecut=    36.00 Ry     beta=0.10
     Davidson diagonalization with overlap
     ethr =  7.10E-08,  avg # of iterations =  4.0

     total cpu time spent up to now is    19262.7 secs

     total energy              =   -1452.33740606 Ry
     Harris-Foulkes estimate   =   -1452.33741621 Ry
     estimated scf accuracy    <       0.00002686 Ry

     iteration #  4     ecut=    36.00 Ry     beta=0.10
     Davidson diagonalization with overlap
     ethr =  1.34E-08,  avg # of iterations =  3.0

     total cpu time spent up to now is    19533.3 secs

     total energy              =   -1452.33740889 Ry
     Harris-Foulkes estimate   =   -1452.33740943 Ry
     estimated scf accuracy    <       0.00000360 Ry

     iteration #  5     ecut=    36.00 Ry     beta=0.10
     Davidson diagonalization with overlap
     ethr =  1.80E-09,  avg # of iterations =  1.5

     total cpu time spent up to now is    19738.1 secs

     total energy              =   -1452.33740836 Ry
     Harris-Foulkes estimate   =   -1452.33740898 Ry
     estimated scf accuracy    <       0.00000180 Ry

     iteration #  6     ecut=    36.00 Ry     beta=0.10
     Davidson diagonalization with overlap
     ethr =  8.99E-10,  avg # of iterations =  3.0

     total cpu time spent up to now is    20011.9 secs

     total energy              =   -1452.33740891 Ry
     Harris-Foulkes estimate   =   -1452.33740894 Ry
     estimated scf accuracy    <       0.00000139 Ry

     iteration #  7     ecut=    36.00 Ry     beta=0.10
     Davidson diagonalization with overlap
     ethr =  6.95E-10,  avg # of iterations =  1.0

     total cpu time spent up to now is    20208.2 secs

     total energy              =   -1452.33740871 Ry
     Harris-Foulkes estimate   =   -1452.33740891 Ry
     estimated scf accuracy    <       0.00000121 Ry

     iteration #  8     ecut=    36.00 Ry     beta=0.10
     Davidson diagonalization with overlap
     ethr =  6.03E-10,  avg # of iterations =  1.0

     total cpu time spent up to now is    20405.8 secs

     total energy              =   -1452.33740855 Ry
     Harris-Foulkes estimate   =   -1452.33740874 Ry
     estimated scf accuracy    <       0.00000056 Ry

     iteration #  9     ecut=    36.00 Ry     beta=0.10
     Davidson diagonalization with overlap
     ethr =  2.82E-10,  avg # of iterations =  3.0

     total cpu time spent up to now is    20661.8 secs

     total energy              =   -1452.33740863 Ry
     Harris-Foulkes estimate   =   -1452.33740863 Ry
     estimated scf accuracy    <       0.00000007 Ry

     iteration # 10     ecut=    36.00 Ry     beta=0.10
     Davidson diagonalization with overlap
     ethr =  3.28E-11,  avg # of iterations =  3.0

     total cpu time spent up to now is    20931.9 secs

     total energy              =   -1452.33740863 Ry
     Harris-Foulkes estimate   =   -1452.33740864 Ry
     estimated scf accuracy    <       0.00000003 Ry

     iteration # 11     ecut=    36.00 Ry     beta=0.10
     Davidson diagonalization with overlap
     ethr =  1.57E-11,  avg # of iterations =  3.0

     total cpu time spent up to now is    21224.1 secs

     total energy              =   -1452.33740865 Ry
     Harris-Foulkes estimate   =   -1452.33740864 Ry
     estimated scf accuracy    <       0.00000001 Ry

     iteration # 12     ecut=    36.00 Ry     beta=0.10
     Davidson diagonalization with overlap
     ethr =  5.61E-12,  avg # of iterations =  1.1

     total cpu time spent up to now is    21420.4 secs

     total energy              =   -1452.33740866 Ry
     Harris-Foulkes estimate   =   -1452.33740865 Ry
     estimated scf accuracy    <       0.00000001 Ry

     iteration # 13     ecut=    36.00 Ry     beta=0.10
     Davidson diagonalization with overlap
     ethr =  5.06E-12,  avg # of iterations =  3.0

     total cpu time spent up to now is    21694.4 secs

     total energy              =   -1452.33740867 Ry
     Harris-Foulkes estimate   =   -1452.33740866 Ry
     estimated scf accuracy    <          5.1E-09 Ry

     iteration # 14     ecut=    36.00 Ry     beta=0.10
     Davidson diagonalization with overlap
     ethr =  2.53E-12,  avg # of iterations =  4.0

     total cpu time spent up to now is    21981.8 secs

     total energy              =   -1452.33740868 Ry
     Harris-Foulkes estimate   =   -1452.33740867 Ry
     estimated scf accuracy    <          1.5E-09 Ry

     iteration # 15     ecut=    36.00 Ry     beta=0.10
     Davidson diagonalization with overlap
     ethr =  7.43E-13,  avg # of iterations =  3.6

     total cpu time spent up to now is    22224.2 secs

     total energy              =   -1452.33740868 Ry
     Harris-Foulkes estimate   =   -1452.33740868 Ry
     estimated scf accuracy    <          1.2E-09 Ry

     iteration # 16     ecut=    36.00 Ry     beta=0.10
     Davidson diagonalization with overlap
     ethr =  6.21E-13,  avg # of iterations =  3.0

     total cpu time spent up to now is    22499.5 secs

     End of self-consistent calculation

     Number of k-points >= 100: set verbosity='high' to print the bands.

     highest occupied, lowest unoccupied level (ev):     2.7724    4.0415

!    total energy              =   -1452.33740871 Ry
     Harris-Foulkes estimate   =   -1452.33740868 Ry
     estimated scf accuracy    <          1.5E-10 Ry

     The total energy is the sum of the following terms:

     one-electron contribution =    -445.09348176 Ry
     hartree contribution      =     303.58683275 Ry
     xc contribution           =    -735.08215993 Ry
     ewald contribution        =    -575.74859975 Ry

     convergence has been achieved in  16 iterations

     Forces acting on atoms (cartesian axes, Ry/au):

     atom    1 type  5   force =    -0.00080520    0.00063933   -0.00120731
     atom    2 type  5   force =     0.00147836   -0.00024743   -0.00126385
     atom    3 type  5   force =    -0.00015176   -0.00027748   -0.00125198
     atom    4 type  5   force =    -0.00088525    0.00000774   -0.00119279
     atom    5 type  4   force =    -0.00070884    0.00120184    0.00887421
     atom    6 type  4   force =    -0.00052304   -0.00000151    0.00638024
     atom    7 type  4   force =    -0.00064235    0.00123030    0.00729652
     atom    8 type  4   force =    -0.00054822    0.00007397    0.00995029
     atom    9 type  4   force =    -0.00048465   -0.00012312   -0.00064202
     atom   10 type  4   force =     0.00071829   -0.00058717   -0.00067234
     atom   11 type  4   force =    -0.00200184    0.00042131    0.00787309
     atom   12 type  4   force =    -0.00155016   -0.00006629    0.00880659
     atom   13 type  4   force =    -0.00198187    0.00039823    0.00845792
     atom   14 type  4   force =    -0.00160070   -0.00007341    0.00747723
     atom   15 type  4   force =     0.00110727   -0.00005765   -0.00065949
     atom   16 type  4   force =     0.00088475    0.00002821   -0.00066517
     atom   17 type  2   force =    -0.00000741    0.00000520    0.00041873
     atom   18 type  1   force =     0.00037203   -0.00069691   -0.00363447
     atom   19 type  1   force =     0.00036034    0.00068657   -0.00366505
     atom   20 type  1   force =    -0.00027054    0.00002366   -0.00388604
     atom   21 type  1   force =    -0.00073572   -0.00006240   -0.00015731
     atom   22 type  1   force =     0.00129823   -0.00042596   -0.00086055
     atom   23 type  1   force =     0.00130574    0.00041337   -0.00081107
     atom   24 type  3   force =     0.00102655   -0.00003385   -0.00180237
     atom   25 type  2   force =     0.00001636    0.00001284    0.00042335
     atom   26 type  1   force =     0.00031740   -0.00076135   -0.00360784
     atom   27 type  1   force =     0.00028812    0.00079895   -0.00357187
     atom   28 type  1   force =    -0.00022894   -0.00005123   -0.00397442
     atom   29 type  1   force =    -0.00068249    0.00000921   -0.00006972
     atom   30 type  1   force =     0.00135179   -0.00038268   -0.00090057
     atom   31 type  1   force =     0.00139797    0.00037888   -0.00092216
     atom   32 type  3   force =     0.00115297    0.00001204   -0.00180044
     atom   33 type  2   force =    -0.00004935   -0.00001926    0.00042907
     atom   34 type  1   force =    -0.00070268   -0.00070714   -0.00351636
     atom   35 type  1   force =     0.00040318   -0.00004960   -0.00384052
     atom   36 type  1   force =    -0.00004342    0.00046620   -0.00380905
     atom   37 type  1   force =    -0.00104753    0.00053708   -0.00038665
     atom   38 type  1   force =    -0.00080848   -0.00080764   -0.00108640
     atom   39 type  1   force =     0.00055230   -0.00106033   -0.00037330
     atom   40 type  3   force =    -0.00068188   -0.00067044   -0.00179945
     atom   41 type  2   force =    -0.00001704    0.00000060    0.00043429
     atom   42 type  1   force =     0.00036168   -0.00070190   -0.00362932
     atom   43 type  1   force =     0.00034081    0.00068933   -0.00364242
     atom   44 type  1   force =    -0.00028060    0.00001147   -0.00390941
     atom   45 type  1   force =    -0.00076172   -0.00010185   -0.00017392
     atom   46 type  1   force =     0.00125493   -0.00044480   -0.00085213
     atom   47 type  1   force =     0.00124512    0.00041897   -0.00079138
     atom   48 type  3   force =     0.00096748   -0.00005388   -0.00179238

     Total force =     0.028008     Total SCF correction =     0.000007

     number of scf cycles    =   4
     number of bfgs steps    =   3

     energy   old            =   -1452.3362625639 Ry
     energy   new            =   -1452.3374087055 Ry

     CASE: energy  _new < energy  _old

     new trust radius        =       0.0186294878 bohr
     new conv_thr            =       0.0000000010 Ry


ATOMIC_POSITIONS (angstrom)
Pb      -0.002912675   0.001979491  -0.002915117
Pb       4.429501213   4.423560528  -0.003069591
Pb       0.000139331  -0.000914386   6.318064692
Pb       4.422041765   4.424750464   6.318236326
I        2.210233076   2.215723582   0.024723957
I        6.635307463   2.212254876   0.017820799
I        6.635096800   6.640453084   0.020355582
I        2.210533310   6.637133240   0.027709559
I       -0.001258769  -0.000387284   3.158146251
I        4.426547066   4.422990394   3.158065243
I        2.206594464   2.213327977   6.343020661
I        6.632533802   2.212331996   6.345756851
I        6.631263810   6.637895590   6.344735388
I        2.207746976   6.636961834   6.341859159
I        0.003061522  -0.000140255   9.479208933
I        4.427178255   4.424661652   9.479189244
C        4.425217266   8.849242906  10.222746938
H        3.901411608   9.739040580  10.581507332
H        3.915010343   7.951566997  10.581312527
H        5.457667818   8.857177106  10.579940492
H        3.467499801   8.841802527   8.343235751
H        4.913133283   8.023878743   8.339665699
H        4.900625902   9.681673835   8.339933088
N        4.425786730   8.849149850   8.730232982
C        8.849764948   4.424602200  10.222766718
H        8.325646179   5.314319691  10.581704253
H        8.339192134   3.527093119  10.581898679
H        9.882426171   4.432300067  10.579455953
H        7.892291046   4.417431239   8.343731514
H        9.338050999   3.599306843   8.339469154
H        9.325676278   5.257146653   8.339352676
N        8.850765686   4.424677850   8.730149882
C        4.424091511   8.848800476   3.901651218
H        5.148726256   9.584414951   4.261056044
H        3.424923934   9.109429099   4.259219412
H        4.700057684   7.853789135   4.259312996
H        4.166847480   9.771600552   2.020959829
H        3.751170191   8.165549397   2.017462000
H        5.350809164   8.605360780   2.020986661
N        4.423774511   8.848371396   2.409089828
C        8.849808755   4.424620801   3.901665696
H        8.325963574   5.314420645   4.260411282
H        8.339548520   3.526961418   4.260259209
H        9.882300073   4.432520217   4.258774805
H        7.892051476   4.417068266   2.022022343
H        9.337549685   3.599216835   2.018587505
H        9.325001026   5.257041340   2.018921074
N        8.850279552   4.424489105   2.409146519



     Writing output data file 00_15_1101_75.save
     NEW-OLD atomic charge density approx. for the potential

     total cpu time spent up to now is    22576.4 secs

     per-process dynamical memory:   332.7 Mb

     Self-consistent Calculation

     iteration #  1     ecut=    36.00 Ry     beta=0.10
     Davidson diagonalization with overlap
     ethr =  1.00E-06,  avg # of iterations =  4.3

     Threshold (ethr) on eigenvalues was too large:
     Diagonalizing with lowered threshold

     Davidson diagonalization with overlap
     ethr =  8.96E-08,  avg # of iterations =  1.0

     total cpu time spent up to now is    23311.4 secs

     total energy              =   -1452.33868303 Ry
     Harris-Foulkes estimate   =   -1452.33869169 Ry
     estimated scf accuracy    <       0.00018083 Ry

     iteration #  2     ecut=    36.00 Ry     beta=0.10
     Davidson diagonalization with overlap
     ethr =  9.04E-08,  avg # of iterations =  1.0

     total cpu time spent up to now is    23506.8 secs

     total energy              =   -1452.33861098 Ry
     Harris-Foulkes estimate   =   -1452.33868357 Ry
     estimated scf accuracy    <       0.00015528 Ry

     iteration #  3     ecut=    36.00 Ry     beta=0.10
     Davidson diagonalization with overlap
     ethr =  7.76E-08,  avg # of iterations =  3.0

     total cpu time spent up to now is    23780.5 secs

     total energy              =   -1452.33864558 Ry
     Harris-Foulkes estimate   =   -1452.33865118 Ry
     estimated scf accuracy    <       0.00001850 Ry

     iteration #  4     ecut=    36.00 Ry     beta=0.10
     Davidson diagonalization with overlap
     ethr =  9.25E-09,  avg # of iterations =  3.0

     total cpu time spent up to now is    24037.8 secs

     total energy              =   -1452.33864687 Ry
     Harris-Foulkes estimate   =   -1452.33864755 Ry
     estimated scf accuracy    <       0.00000550 Ry

     iteration #  5     ecut=    36.00 Ry     beta=0.10
     Davidson diagonalization with overlap
     ethr =  2.75E-09,  avg # of iterations =  1.8

     total cpu time spent up to now is    24246.2 secs

     total energy              =   -1452.33864574 Ry
     Harris-Foulkes estimate   =   -1452.33864696 Ry
     estimated scf accuracy    <       0.00000322 Ry

     iteration #  6     ecut=    36.00 Ry     beta=0.10
     Davidson diagonalization with overlap
     ethr =  1.61E-09,  avg # of iterations =  3.2

     total cpu time spent up to now is    24524.3 secs

     total energy              =   -1452.33864663 Ry
     Harris-Foulkes estimate   =   -1452.33864670 Ry
     estimated scf accuracy    <       0.00000192 Ry

     iteration #  7     ecut=    36.00 Ry     beta=0.10
     Davidson diagonalization with overlap
     ethr =  9.61E-10,  avg # of iterations =  1.0

     total cpu time spent up to now is    24720.7 secs

     total energy              =   -1452.33864631 Ry
     Harris-Foulkes estimate   =   -1452.33864664 Ry
     estimated scf accuracy    <       0.00000165 Ry

     iteration #  8     ecut=    36.00 Ry     beta=0.10
     Davidson diagonalization with overlap
     ethr =  8.25E-10,  avg # of iterations =  3.0

     total cpu time spent up to now is    24959.5 secs

     total energy              =   -1452.33864613 Ry
     Harris-Foulkes estimate   =   -1452.33864638 Ry
     estimated scf accuracy    <       0.00000059 Ry

     iteration #  9     ecut=    36.00 Ry     beta=0.10
     Davidson diagonalization with overlap
     ethr =  2.96E-10,  avg # of iterations =  3.2

     total cpu time spent up to now is    25232.0 secs

     total energy              =   -1452.33864626 Ry
     Harris-Foulkes estimate   =   -1452.33864624 Ry
     estimated scf accuracy    <       0.00000007 Ry

     iteration # 10     ecut=    36.00 Ry     beta=0.10
     Davidson diagonalization with overlap
     ethr =  3.41E-11,  avg # of iterations =  1.2

     total cpu time spent up to now is    25432.0 secs

     total energy              =   -1452.33864624 Ry
     Harris-Foulkes estimate   =   -1452.33864626 Ry
     estimated scf accuracy    <       0.00000005 Ry

     iteration # 11     ecut=    36.00 Ry     beta=0.10
     Davidson diagonalization with overlap
     ethr =  2.71E-11,  avg # of iterations =  3.3

     total cpu time spent up to now is    25740.4 secs

     total energy              =   -1452.33864628 Ry
     Harris-Foulkes estimate   =   -1452.33864626 Ry
     estimated scf accuracy    <       0.00000003 Ry

     iteration # 12     ecut=    36.00 Ry     beta=0.10
     Davidson diagonalization with overlap
     ethr =  1.37E-11,  avg # of iterations =  1.0

     total cpu time spent up to now is    25935.9 secs

     total energy              =   -1452.33864630 Ry
     Harris-Foulkes estimate   =   -1452.33864628 Ry
     estimated scf accuracy    <       0.00000003 Ry

     iteration # 13     ecut=    36.00 Ry     beta=0.10
     Davidson diagonalization with overlap
     ethr =  1.37E-11,  avg # of iterations =  1.0

     total cpu time spent up to now is    26133.1 secs

     total energy              =   -1452.33864630 Ry
     Harris-Foulkes estimate   =   -1452.33864630 Ry
     estimated scf accuracy    <       0.00000002 Ry

     iteration # 14     ecut=    36.00 Ry     beta=0.10
     Davidson diagonalization with overlap
     ethr =  1.20E-11,  avg # of iterations =  3.0

     total cpu time spent up to now is    26386.5 secs

     total energy              =   -1452.33864631 Ry
     Harris-Foulkes estimate   =   -1452.33864631 Ry
     estimated scf accuracy    <          6.5E-09 Ry

     iteration # 15     ecut=    36.00 Ry     beta=0.10
     Davidson diagonalization with overlap
     ethr =  3.23E-12,  avg # of iterations =  3.5

     total cpu time spent up to now is    26656.0 secs

     total energy              =   -1452.33864632 Ry
     Harris-Foulkes estimate   =   -1452.33864632 Ry
     estimated scf accuracy    <          5.2E-09 Ry

     iteration # 16     ecut=    36.00 Ry     beta=0.10
     Davidson diagonalization with overlap
     ethr =  2.60E-12,  avg # of iterations =  2.0

     total cpu time spent up to now is    26873.3 secs

     total energy              =   -1452.33864633 Ry
     Harris-Foulkes estimate   =   -1452.33864632 Ry
     estimated scf accuracy    <          2.7E-09 Ry

     iteration # 17     ecut=    36.00 Ry     beta=0.10
     Davidson diagonalization with overlap
     ethr =  1.33E-12,  avg # of iterations =  3.1

     total cpu time spent up to now is    27130.9 secs

     End of self-consistent calculation

     Number of k-points >= 100: set verbosity='high' to print the bands.

     highest occupied, lowest unoccupied level (ev):     2.7704    4.0434

!    total energy              =   -1452.33864636 Ry
     Harris-Foulkes estimate   =   -1452.33864633 Ry
     estimated scf accuracy    <          4.8E-10 Ry

     The total energy is the sum of the following terms:

     one-electron contribution =    -445.62698137 Ry
[...]
     atom   40 type  3   force =     0.00029677    0.00015929   -0.00111617
     atom   41 type  2   force =     0.00061198    0.00006820   -0.00007741
     atom   42 type  1   force =    -0.00025332   -0.00030840   -0.00076182
     atom   43 type  1   force =    -0.00033426   -0.00038058    0.00021796
     atom   44 type  1   force =    -0.00006404   -0.00000159   -0.00031450
     atom   45 type  1   force =     0.00064994    0.00009836   -0.00063419
     atom   46 type  1   force =    -0.00044467    0.00100361    0.00052236
     atom   47 type  1   force =    -0.00006321   -0.00089493    0.00019789
     atom   48 type  3   force =    -0.00055212    0.00037264    0.00025628

     Total force =     0.004920     Total SCF correction =     0.000016

     number of scf cycles    = 190
     number of bfgs steps    = 189

     energy   old            =   -1452.4017027865 Ry
     energy   new            =   -1452.4017469544 Ry

     CASE: energy  _new < energy  _old

     new trust radius        =       0.0234296616 bohr
     new conv_thr            =            1.0E-10 Ry


ATOMIC_POSITIONS (angstrom)
Pb       0.114693515   0.028406580   0.053983577
Pb       4.442562132   4.538135584   0.071797383
Pb      -0.128923619  -0.049583953   6.393286325
Pb       4.395539609   4.293649162   6.400745729
I        2.154888606   2.397514425   0.432269350
I        6.602011615   2.173295958  -0.246716416
I        6.839147590   6.574354535   0.206673725
I        2.501722113   6.918437651   0.907681309
I       -0.513263878   0.408403939   3.288107648
I        4.962908021   3.970546976   3.297660758
I        1.978900656   2.283631926   6.520364835
I        6.344644532   1.917108062   7.261573957
I        6.709831495   6.400662365   6.706259056
I        2.270478656   6.683881292   6.079175072
I        0.511574323  -0.467173241   9.599874821
I        3.900473506   4.888469515   9.619318045
C        4.520735826   8.853070137  10.139979575
H        4.327809851   9.920470814  10.277273405
H        3.988479777   8.271886511  10.899630816
H        5.596028289   8.661373605  10.195738680
H        3.005131699   8.590551964   8.714323185
H        4.197995091   7.429446667   8.639204087
H        4.520110285   8.984229914   8.053671863
N        4.032249299   8.442695583   8.796048952
C        8.678269347   4.112650861   9.900889401
H        8.231137024   4.910526054  10.501748805
H        7.921637319   3.364799071   9.646312074
H        9.499918886   3.644041025  10.451494186
H        8.472275501   5.180788208   8.092943177
H        9.641181181   3.969780765   8.030583472
H        9.958708450   5.397088540   8.838092273
N        9.217507439   4.700843101   8.644544576
C        4.244438281   8.903001776   3.811644792
H        4.666453175   9.576756762   4.562785103
H        3.158284481   9.017316467   3.765023725
H        4.494850618   7.866281733   4.048122615
H        4.633797197  10.238080410   2.246016370
H        4.417277743   8.643657984   1.744401103
H        5.858791196   9.135438079   2.494933703
N        4.822223756   9.247453781   2.486223861
C        9.100217312   4.716530882   3.565926814
H        8.333541741   5.250389810   4.136128014
H        9.507314370   3.896821853   4.166045822
H        9.900763400   5.402482008   3.275955545
H        7.672876277   3.546355345   2.560894127
H        9.168514986   3.587022964   1.786643480
H        8.118409824   4.903316040   1.707774193
N        8.482558496   4.151757910   2.334485029



     Writing output data file 00_15_1101_75.save
     NEW-OLD atomic charge density approx. for the potential

     total cpu time spent up to now is  1126032.3 secs

     per-process dynamical memory:   332.7 Mb

     Self-consistent Calculation

     iteration #  1     ecut=    36.00 Ry     beta=0.10
     Davidson diagonalization with overlap
     ethr =  1.00E-06,  avg # of iterations =  4.0

     Threshold (ethr) on eigenvalues was too large:
     Diagonalizing with lowered threshold

     Davidson diagonalization with overlap
     ethr =  9.43E-08,  avg # of iterations =  1.1

     total cpu time spent up to now is  1126756.8 secs

     total energy              =   -1452.40180931 Ry
     Harris-Foulkes estimate   =   -1452.40181241 Ry
     estimated scf accuracy    <       0.00018883 Ry

     iteration #  2     ecut=    36.00 Ry     beta=0.10
     Davidson diagonalization with overlap
     ethr =  9.44E-08,  avg # of iterations =  1.0

     total cpu time spent up to now is  1126954.3 secs

     total energy              =   -1452.40177301 Ry
     Harris-Foulkes estimate   =   -1452.40180988 Ry
     estimated scf accuracy    <       0.00016137 Ry

     iteration #  3     ecut=    36.00 Ry     beta=0.10
     Davidson diagonalization with overlap
     ethr =  8.07E-08,  avg # of iterations =  2.3

     total cpu time spent up to now is  1127189.4 secs

     total energy              =   -1452.40178787 Ry
     Harris-Foulkes estimate   =   -1452.40178666 Ry
     estimated scf accuracy    <       0.00000218 Ry

     iteration #  4     ecut=    36.00 Ry     beta=0.10
     Davidson diagonalization with overlap
     ethr =  1.09E-09,  avg # of iterations =  4.0

     total cpu time spent up to now is  1127524.5 secs

     total energy              =   -1452.40178902 Ry
     Harris-Foulkes estimate   =   -1452.40178842 Ry
     estimated scf accuracy    <       0.00000158 Ry

     iteration #  5     ecut=    36.00 Ry     beta=0.10
     Davidson diagonalization with overlap
     ethr =  7.90E-10,  avg # of iterations =  1.0

     total cpu time spent up to now is  1127719.8 secs

     total energy              =   -1452.40178958 Ry
     Harris-Foulkes estimate   =   -1452.40178903 Ry
     estimated scf accuracy    <       0.00000116 Ry

     iteration #  6     ecut=    36.00 Ry     beta=0.10
     Davidson diagonalization with overlap
     ethr =  5.80E-10,  avg # of iterations =  4.0

     total cpu time spent up to now is  1128002.4 secs

     total energy              =   -1452.40179001 Ry
     Harris-Foulkes estimate   =   -1452.40178987 Ry
     estimated scf accuracy    <       0.00000023 Ry

     iteration #  7     ecut=    36.00 Ry     beta=0.10
     Davidson diagonalization with overlap
     ethr =  1.15E-10,  avg # of iterations =  1.0

     total cpu time spent up to now is  1128199.3 secs

     total energy              =   -1452.40179009 Ry
     Harris-Foulkes estimate   =   -1452.40179002 Ry
     estimated scf accuracy    <       0.00000020 Ry

     iteration #  8     ecut=    36.00 Ry     beta=0.10
     Davidson diagonalization with overlap
     ethr =  9.84E-11,  avg # of iterations =  3.0

     total cpu time spent up to now is  1128436.3 secs

     total energy              =   -1452.40179023 Ry
     Harris-Foulkes estimate   =   -1452.40179010 Ry
     estimated scf accuracy    <       0.00000008 Ry

     iteration #  9     ecut=    36.00 Ry     beta=0.10
     Davidson diagonalization with overlap
     ethr =  3.78E-11,  avg # of iterations =  3.4

     total cpu time spent up to now is  1128695.4 secs

     total energy              =   -1452.40179034 Ry
     Harris-Foulkes estimate   =   -1452.40179024 Ry
     estimated scf accuracy    <       0.00000002 Ry

     iteration # 10     ecut=    36.00 Ry     beta=0.10
     Davidson diagonalization with overlap
     ethr =  7.98E-12,  avg # of iterations =  2.4

     total cpu time spent up to now is  1128911.9 secs

     total energy              =   -1452.40179038 Ry
     Harris-Foulkes estimate   =   -1452.40179034 Ry
     estimated scf accuracy    <       0.00000002 Ry

     iteration # 11     ecut=    36.00 Ry     beta=0.10
     Davidson diagonalization with overlap
     ethr =  7.98E-12,  avg # of iterations =  3.0

     total cpu time spent up to now is  1129165.0 secs

     total energy              =   -1452.40179045 Ry
     Harris-Foulkes estimate   =   -1452.40179038 Ry
     estimated scf accuracy    <          3.1E-09 Ry

     iteration # 12     ecut=    36.00 Ry     beta=0.10
     Davidson diagonalization with overlap
     ethr =  1.57E-12,  avg # of iterations =  3.2

     total cpu time spent up to now is  1129409.3 secs

     total energy              =   -1452.40179052 Ry
     Harris-Foulkes estimate   =   -1452.40179045 Ry
     estimated scf accuracy    <          1.7E-09 Ry

     iteration # 13     ecut=    36.00 Ry     beta=0.10
     Davidson diagonalization with overlap
     ethr =  8.49E-13,  avg # of iterations =  2.7

     total cpu time spent up to now is  1129632.4 secs

     total energy              =   -1452.40179057 Ry
     Harris-Foulkes estimate   =   -1452.40179052 Ry
     estimated scf accuracy    <          1.1E-09 Ry

     iteration # 14     ecut=    36.00 Ry     beta=0.10
     Davidson diagonalization with overlap
     ethr =  5.31E-13,  avg # of iterations =  4.0

     total cpu time spent up to now is  1129968.2 secs

     total energy              =   -1452.40179061 Ry
     Harris-Foulkes estimate   =   -1452.40179057 Ry
     estimated scf accuracy    <          9.6E-10 Ry

     iteration # 15     ecut=    36.00 Ry     beta=0.10
     Davidson diagonalization with overlap
     ethr =  4.79E-13,  avg # of iterations =  3.6

     total cpu time spent up to now is  1130207.0 secs

     total energy              =   -1452.40179064 Ry
     Harris-Foulkes estimate   =   -1452.40179061 Ry
     estimated scf accuracy    <          4.3E-10 Ry

     iteration # 16     ecut=    36.00 Ry     beta=0.10
     Davidson diagonalization with overlap
     ethr =  2.16E-13,  avg # of iterations =  3.5

     total cpu time spent up to now is  1130450.6 secs

     total energy              =   -1452.40179066 Ry
     Harris-Foulkes estimate   =   -1452.40179064 Ry
     estimated scf accuracy    <          2.8E-10 Ry

     iteration # 17     ecut=    36.00 Ry     beta=0.10
     Davidson diagonalization with overlap
     ethr =  1.38E-13,  avg # of iterations =  2.0

     total cpu time spent up to now is  1130659.0 secs

     total energy              =   -1452.40179068 Ry
     Harris-Foulkes estimate   =   -1452.40179066 Ry
     estimated scf accuracy    <          2.2E-10 Ry

     iteration # 18     ecut=    36.00 Ry     beta=0.10
     Davidson diagonalization with overlap
     ethr =  1.08E-13,  avg # of iterations =  3.7

     total cpu time spent up to now is  1130927.9 secs

     End of self-consistent calculation

     Number of k-points >= 100: set verbosity='high' to print the bands.

     highest occupied, lowest unoccupied level (ev):     2.3194    4.0672

!    total energy              =   -1452.40179077 Ry
     Harris-Foulkes estimate   =   -1452.40179068 Ry
     estimated scf accuracy    <          5.7E-11 Ry

     The total energy is the sum of the following terms:

     one-electron contribution =    -443.90575136 Ry
     hartree contribution      =     302.90733195 Ry
     xc contribution           =    -735.04615809 Ry
     ewald contribution        =    -576.35721326 Ry

     convergence has been achieved in  18 iterations

     Forces acting on atoms (cartesian axes, Ry/au):

     atom    1 type  5   force =     0.00000247    0.00015878    0.00080681
     atom    2 type  5   force =    -0.00015426   -0.00030438    0.00031379
     atom    3 type  5   force =    -0.00008980    0.00030479   -0.00027828
     atom    4 type  5   force =     0.00046369    0.00024997   -0.00052159
     atom    5 type  4   force =     0.00055432    0.00073407    0.00005619
     atom    6 type  4   force =    -0.00014740    0.00002188   -0.00047075
     atom    7 type  4   force =     0.00037122   -0.00076324    0.00019153
     atom    8 type  4   force =     0.00033432   -0.00011333    0.00044559
     atom    9 type  4   force =    -0.00008697    0.00040652   -0.00039449
     atom   10 type  4   force =     0.00000548    0.00032053    0.00031362
     atom   11 type  4   force =    -0.00016645   -0.00038291    0.00057433
     atom   12 type  4   force =     0.00000809   -0.00017504   -0.00005451
     atom   13 type  4   force =    -0.00042200    0.00021185   -0.00004484
     atom   14 type  4   force =    -0.00044653   -0.00019121   -0.00058159
     atom   15 type  4   force =     0.00013613    0.00012347    0.00019910
     atom   16 type  4   force =     0.00003664   -0.00068958   -0.00028966
     atom   17 type  2   force =    -0.00012414    0.00044043    0.00001504
     atom   18 type  1   force =     0.00019225   -0.00002551   -0.00049718
     atom   19 type  1   force =     0.00035852   -0.00031386    0.00007222
     atom   20 type  1   force =    -0.00056575    0.00021991    0.00063798
     atom   21 type  1   force =     0.00046380   -0.00005262    0.00019576
     atom   22 type  1   force =    -0.00050139    0.00049531   -0.00011755
     atom   23 type  1   force =    -0.00042205   -0.00035409    0.00032749
     atom   24 type  3   force =     0.00058500    0.00006143    0.00015310
     atom   25 type  2   force =     0.00021230   -0.00002207    0.00018440
     atom   26 type  1   force =    -0.00021130    0.00026156    0.00034237
     atom   27 type  1   force =     0.00025593    0.00057969   -0.00070372
     atom   28 type  1   force =     0.00009564    0.00000105    0.00022634
     atom   29 type  1   force =     0.00008297    0.00022636    0.00004849
     atom   30 type  1   force =     0.00028388    0.00050735    0.00005815
     atom   31 type  1   force =    -0.00048230   -0.00077288   -0.00016495
     atom   32 type  3   force =    -0.00069042   -0.00027652   -0.00011675
     atom   33 type  2   force =    -0.00026795   -0.00042258    0.00012165
     atom   34 type  1   force =     0.00037286    0.00012843    0.00074740
     atom   35 type  1   force =    -0.00032631    0.00033522    0.00000024
     atom   36 type  1   force =     0.00038068   -0.00092870    0.00005477
     atom   37 type  1   force =    -0.00014518    0.00049782   -0.00007361
     atom   38 type  1   force =    -0.00056925   -0.00019197   -0.00027279
     atom   39 type  1   force =     0.00054363   -0.00031928   -0.00011151
     atom   40 type  3   force =     0.00048873    0.00003303   -0.00068704
     atom   41 type  2   force =     0.00021043   -0.00053922    0.00041486
     atom   42 type  1   force =    -0.00035330    0.00025683   -0.00067053
     atom   43 type  1   force =    -0.00014907   -0.00048263    0.00005427
     atom   44 type  1   force =    -0.00000740    0.00021501   -0.00045207
     atom   45 type  1   force =     0.00065329   -0.00009576   -0.00038007
     atom   46 type  1   force =    -0.00052101    0.00074291    0.00022633
     atom   47 type  1   force =    -0.00005484   -0.00073913    0.00024806
     atom   48 type  3   force =    -0.00018720    0.00062231   -0.00014643

     Total force =     0.004543     Total SCF correction =     0.000013

     bfgs converged in 191 scf cycles and 190 bfgs steps
     (criteria: energy <  1.0E-04 Ry, force <  1.0E-03 Ry/Bohr)

     End of BFGS Geometry Optimization

     Final energy   =   -1452.4017907689 Ry
Begin final coordinates

ATOMIC_POSITIONS (angstrom)
Pb       0.114693515   0.028406580   0.053983577
Pb       4.442562132   4.538135584   0.071797383
Pb      -0.128923619  -0.049583953   6.393286325
Pb       4.395539609   4.293649162   6.400745729
I        2.154888606   2.397514425   0.432269350
I        6.602011615   2.173295958  -0.246716416
I        6.839147590   6.574354535   0.206673725
I        2.501722113   6.918437651   0.907681309
I       -0.513263878   0.408403939   3.288107648
I        4.962908021   3.970546976   3.297660758
I        1.978900656   2.283631926   6.520364835
I        6.344644532   1.917108062   7.261573957
I        6.709831495   6.400662365   6.706259056
I        2.270478656   6.683881292   6.079175072
I        0.511574323  -0.467173241   9.599874821
I        3.900473506   4.888469515   9.619318045
C        4.520735826   8.853070137  10.139979575
H        4.327809851   9.920470814  10.277273405
H        3.988479777   8.271886511  10.899630816
H        5.596028289   8.661373605  10.195738680
H        3.005131699   8.590551964   8.714323185
H        4.197995091   7.429446667   8.639204087
H        4.520110285   8.984229914   8.053671863
N        4.032249299   8.442695583   8.796048952
C        8.678269347   4.112650861   9.900889401
H        8.231137024   4.910526054  10.501748805
H        7.921637319   3.364799071   9.646312074
H        9.499918886   3.644041025  10.451494186
H        8.472275501   5.180788208   8.092943177
H        9.641181181   3.969780765   8.030583472
H        9.958708450   5.397088540   8.838092273
N        9.217507439   4.700843101   8.644544576
C        4.244438281   8.903001776   3.811644792
H        4.666453175   9.576756762   4.562785103
H        3.158284481   9.017316467   3.765023725
H        4.494850618   7.866281733   4.048122615
H        4.633797197  10.238080410   2.246016370
H        4.417277743   8.643657984   1.744401103
H        5.858791196   9.135438079   2.494933703
N        4.822223756   9.247453781   2.486223861
C        9.100217312   4.716530882   3.565926814
H        8.333541741   5.250389810   4.136128014
H        9.507314370   3.896821853   4.166045822
H        9.900763400   5.402482008   3.275955545
H        7.672876277   3.546355345   2.560894127
H        9.168514986   3.587022964   1.786643480
H        8.118409824   4.903316040   1.707774193
N        8.482558496   4.151757910   2.334485029
End final coordinates



     Writing output data file 00_15_1101_75.save

     init_run     :     97.34s CPU     97.86s WALL (       1 calls)
     electrons    : *********s CPU *********s WALL (     191 calls)
     update_pot   :   2119.24s CPU   2145.32s WALL (     190 calls)
     forces       :  12209.11s CPU  12265.84s WALL (     191 calls)

     Called by init_run:
     wfcinit      :     84.78s CPU     85.14s WALL (       1 calls)
     potinit      :      3.83s CPU      3.85s WALL (       1 calls)

     Called by electrons:
     c_bands      : *********s CPU *********s WALL (    4366 calls)
     sum_band     :  96298.11s CPU  96915.01s WALL (    4366 calls)
     v_of_rho     :    758.25s CPU    760.13s WALL (    4485 calls)
     newd         :   2729.52s CPU   2888.95s WALL (    4485 calls)
     mix_rho      :    306.34s CPU    309.27s WALL (    4366 calls)

     Called by c_bands:
     init_us_2    :   2906.64s CPU   3190.57s WALL (  999488 calls)
     cegterg      : *********s CPU *********s WALL (  488992 calls)

     Called by sum_band:
     sum_band:bec :    439.18s CPU    489.28s WALL (  488992 calls)
     addusdens    :   3274.89s CPU   3466.50s WALL (    4366 calls)

     Called by *egterg:
     h_psi        : 392208.50s CPU 394182.74s WALL ( 1781873 calls)
     s_psi        : 131190.50s CPU 131376.43s WALL ( 1781873 calls)
     g_psi        :    709.40s CPU    708.66s WALL ( 1292769 calls)
     cdiaghg      : 179692.20s CPU 179460.87s WALL ( 1752417 calls)

     Called by h_psi:
     h_psi:pot    : 390795.68s CPU 392726.71s WALL ( 1781873 calls)
     h_psi:calbec : 125940.15s CPU 126005.82s WALL ( 1781873 calls)
     vloc_psi     : 134020.60s CPU 135231.84s WALL ( 1781873 calls)
     add_vuspsi   : 130822.54s CPU 131473.09s WALL ( 1781873 calls)

     General routines
     calbec       : 190677.31s CPU 190917.83s WALL ( 2356433 calls)
     fft          :    627.61s CPU    633.79s WALL (   73575 calls)
     ffts         :    105.11s CPU     99.96s WALL (  135108 calls)
     fftw         : 134829.03s CPU 130631.87s WALL (******** calls)
     interpolate  :     79.46s CPU     79.56s WALL (    8851 calls)

     Parallel routines
     fft_scatter  :  39862.32s CPU  26268.85s WALL (******** calls)

     PWSCF        :    13d    0h55m CPU       13d    2h10m WALL


   This run was terminated on:   0:10: 9  26Sep2018            

=------------------------------------------------------------------------------=
   JOB DONE.
=------------------------------------------------------------------------------=
